                         Program Version 5.0.1 -  RELEASE  -
|  1> ! PAL2
|  2> ! cc-pVDZ CCSD VeryTightSCF NoFrozenCore
|  3> ! Opt Freq
|  4> %elprop dipole true
|  5> end
|  6> %maxcore 4000
|  7> * xyz 0 1
|  8> C  1.011100  0.077080  -0.059530
|  9> C  2.525690  0.079850  -0.066400
| 10> O  3.005810  1.243650  -0.723650
| 11> H  0.625160  -0.805710  0.457800
| 12> H  0.619370  0.085560  -1.081990
| 13> H  0.626450  0.974410  0.436200
| 14> H  2.917510  -0.801850  -0.582510
| 15> H  2.913160  0.081420  0.956540
| 16> H  2.664530  1.228020  -1.634070
| 17> *
| 18>
| 19>
| 20>                          ****END OF INPUT****
 Total Charge           Charge          ....    0
 Multiplicity           Mult            ....    1
 Number of Electrons    NEL             ....   26
E(0)                                       ...   -154.090952448
E(0)                                       ...   -154.090952448
E(CORR)                                    ...     -0.526146586
E(TOT)                                     ...   -154.617099034
FINAL SINGLE POINT ENERGY      -154.617099034116
E(0)                                       ...   -154.091369609
E(0)                                       ...   -154.091369609
FINAL SINGLE POINT ENERGY      -154.618474332749
FINAL SINGLE POINT ENERGY      -154.618583783475
FINAL SINGLE POINT ENERGY      -154.618596251569
E(CORR)                                    ...     -0.527259075
E(TOT)                                     ...   -154.618598253
FINAL SINGLE POINT ENERGY      -154.618598253344
                    ***********************HURRAY********************

CARTESIAN COORDINATES (ANGSTROEM)
---------------------------------
  C      0.995600    0.073273   -0.059330
  C      2.522318    0.091912   -0.092437
  O      3.038362    1.260876   -0.711920
  H      0.620609   -0.814256    0.480345
  H      0.581707    0.044602   -1.084623
  H      0.614122    0.980413    0.439288
  H      2.902164   -0.827972   -0.584293
  H      2.923432    0.097159    0.935314
  H      2.710466    1.256423   -1.619954

 Multiplicity           Mult            ....    1
 Number of Electrons    NEL             ....   26
 Basis Dimension        Dim             ....   72

ORBITAL ENERGIES
----------------

  NO   OCC          E(Eh)            E(eV)
   0   2.0000     -20.551054      -559.2226
   1   2.0000     -11.279933      -306.9426
   2   2.0000     -11.229065      -305.5584
   3   2.0000      -1.353217       -36.8229
   4   2.0000      -1.006411       -27.3858
   5   2.0000      -0.840848       -22.8806
   6   2.0000      -0.679892       -18.5008
   7   2.0000      -0.616108       -16.7651
   8   2.0000      -0.600793       -16.3484
   9   2.0000      -0.539202       -14.6724
  10   2.0000      -0.520667       -14.1681
  11   2.0000      -0.476075       -12.9547
  12   2.0000      -0.436269       -11.8715
  13   0.0000       0.177817         4.8386
  14   0.0000       0.218813         5.9542
  15   0.0000       0.232886         6.3371
  16   0.0000       0.252117         6.8605
  17   0.0000       0.263446         7.1687

E(0)                                       ...   -154.091354016
E(0)                                       ...   -154.091354016
E(CORR)                                    ...     -0.527244622
E(TOT)                                     ...   -154.618598638

MULLIKEN ATOMIC CHARGES
-----------------------
   0 C :   -0.112468
   1 C :    0.092259
   2 O :   -0.288649
   3 H :    0.034659
   4 H :    0.028392
   5 H :    0.048529
   6 H :    0.016715
   7 H :    0.040501
   8 H :    0.140061
Sum of atomic charges:   -0.0000000

LOEWDIN ATOMIC CHARGES
----------------------
   0 C :   -0.086884
   1 C :   -0.028731
   2 O :   -0.029112
   3 H :    0.029402
   4 H :    0.021393
   5 H :    0.029029
   6 H :    0.006632
   7 H :    0.023663
   8 H :    0.034609

  Mayer bond orders larger than 0.100000
B(  0-C ,  1-C ) :   1.0045 B(  0-C ,  3-H ) :   0.9162 B(  0-C ,  4-H ) :   0.9236
B(  0-C ,  5-H ) :   0.9231 B(  1-C ,  2-O ) :   0.9929 B(  1-C ,  6-H ) :   0.9101
B(  1-C ,  7-H ) :   0.9165 B(  2-O ,  8-H ) :   0.9599

FINAL SINGLE POINT ENERGY      -154.618598637814

DIPOLE MOMENT
-------------
                                X             Y             Z
Electronic contribution:      2.28391       1.71043      -0.71893
Nuclear contribution   :     -2.65269      -2.09584       0.43997
                        -----------------------------------------
Total Dipole Moment    :     -0.36878      -0.38541      -0.27896
                        -----------------------------------------
Magnitude (a.u.)       :      0.60196
Magnitude (Debye)      :      1.53007

VIBRATIONAL FREQUENCIES
-----------------------

Scaling factor for frequencies =  1.000000000 (already applied!)

   0:         0.00 cm**-1
   1:         0.00 cm**-1
   2:         0.00 cm**-1
   3:         0.00 cm**-1
   4:         0.00 cm**-1
   5:         0.00 cm**-1
   6:       277.99 cm**-1
   7:       327.92 cm**-1
   8:       425.18 cm**-1
   9:       808.18 cm**-1
  10:       909.86 cm**-1
  11:      1083.10 cm**-1
  12:      1122.17 cm**-1
  13:      1155.95 cm**-1
  14:      1294.95 cm**-1
  15:      1393.96 cm**-1
  16:      1416.15 cm**-1
  17:      1450.29 cm**-1
  18:      1490.90 cm**-1
  19:      1497.74 cm**-1
  20:      1525.62 cm**-1
  21:      3026.80 cm**-1
  22:      3059.50 cm**-1
  23:      3118.01 cm**-1
  24:      3142.74 cm**-1
  25:      3161.27 cm**-1
  26:      3853.58 cm**-1

IR SPECTRUM
-----------

 Mode   freq       eps      Int      T**2         TX        TY        TZ
       cm**-1   L/(mol*cm) km/mol    a.u.
----------------------------------------------------------------------------
  6:    277.99   0.000902    4.56  0.001013  (-0.023703  0.021190  0.001360)
  7:    327.92   0.019984  100.99  0.019018  (-0.114476  0.052569  0.056121)
  8:    425.18   0.003827   19.34  0.002809  ( 0.045788 -0.025648 -0.007379)
  9:    808.18   0.000402    2.03  0.000155  (-0.002429  0.012143  0.001417)
 10:    909.86   0.001360    6.87  0.000466  ( 0.007615  0.018168 -0.008853)
 11:   1083.10   0.004403   22.25  0.001269  ( 0.003677  0.030134 -0.018627)
 12:   1122.17   0.013542   68.44  0.003766  ( 0.035055  0.041753 -0.028175)
 13:   1155.95   0.003220   16.27  0.000869  (-0.006691 -0.027710  0.007534)
 14:   1294.95   0.001748    8.83  0.000421  ( 0.010334  0.016236 -0.007131)
 15:   1393.96   0.000171    0.86  0.000038  (-0.001138 -0.002514  0.005540)
 16:   1416.15   0.000818    4.13  0.000180  (-0.004051  0.012568 -0.002432)
 17:   1450.29   0.010886   55.01  0.002342  (-0.032120 -0.032925  0.015055)
 18:   1490.90   0.001759    8.89  0.000368  (-0.005890 -0.000817  0.018244)
 19:   1497.74   0.000273    1.38  0.000057  (-0.002563  0.005866 -0.003988)
 20:   1525.62   0.000028    0.14  0.000006  ( 0.002395  0.000161 -0.000056)
 21:   3026.80   0.014140   71.46  0.001458  (-0.019806  0.032464  0.003421)
 22:   3059.50   0.002920   14.76  0.000298  ( 0.015524  0.005559  0.005091)
 23:   3118.01   0.001986   10.03  0.000199  ( 0.007553  0.004242  0.011122)
 24:   3142.74   0.009514   48.08  0.000945  (-0.002020  0.005509 -0.030170)
 25:   3161.27   0.005060   25.57  0.000499  (-0.000648  0.020875  0.007954)
 26:   3853.58   0.002623   13.25  0.000212  (-0.000199  0.004589 -0.013831)

--------------------------
THERMOCHEMISTRY AT 298.15K
--------------------------

Temperature         ... 298.15 K
Pressure            ... 1.00 atm
Total Mass          ... 46.07 AMU

Throughout the following assumptions are being made:
  (1) The electronic state is orbitally nondegenerate
  (2) There are no thermally accessible electronically excited states
  (3) Hindered rotations indicated by low frequency modes are not
      treated as such but are treated as vibrations and this may
      cause some error
  (4) All equations used are the standard statistical mechanics
      equations for an ideal gas
  (5) All vibrations are strictly harmonic

freq.     277.99  E(vib)   ...       0.28
freq.     327.92  E(vib)   ...       0.24
freq.     425.18  E(vib)   ...       0.18
freq.     808.18  E(vib)   ...       0.05
freq.     909.86  E(vib)   ...       0.03
freq.    1083.10  E(vib)   ...       0.02
freq.    1122.17  E(vib)   ...       0.01
freq.    1155.95  E(vib)   ...       0.01
freq.    1294.95  E(vib)   ...       0.01
freq.    1393.96  E(vib)   ...       0.00
freq.    1416.15  E(vib)   ...       0.00
freq.    1450.29  E(vib)   ...       0.00
freq.    1490.90  E(vib)   ...       0.00
freq.    1497.74  E(vib)   ...       0.00
freq.    1525.62  E(vib)   ...       0.00
freq.    3026.80  E(vib)   ...       0.00
freq.    3059.50  E(vib)   ...       0.00
freq.    3118.01  E(vib)   ...       0.00
freq.    3142.74  E(vib)   ...       0.00
freq.    3161.27  E(vib)   ...       0.00
freq.    3853.58  E(vib)   ...       0.00

------------
INNER ENERGY
------------

The inner energy is: U= E(el) + E(ZPE) + E(vib) + E(rot) + E(trans)
    E(el)   - is the total energy from the electronic structure calculation
              = E(kin-el) + E(nuc-el) + E(el-el) + E(nuc-nuc)
    E(ZPE)  - the the zero temperature vibrational energy from the frequency calculation
    E(vib)  - the the finite temperature correction to E(ZPE) due to population
              of excited vibrational states
    E(rot)  - is the rotational thermal energy
    E(trans)- is the translational thermal energy

Summary of contributions to the inner energy U:
Electronic energy                ...   -154.61859864 Eh
Zero point energy                ...      0.08097032 Eh      50.81 kcal/mol
Thermal vibrational correction   ...      0.00136465 Eh       0.86 kcal/mol
Thermal rotational correction    ...      0.00141627 Eh       0.89 kcal/mol
Thermal translational correction ...      0.00141627 Eh       0.89 kcal/mol
-----------------------------------------------------------------------
Total thermal energy                   -154.53343113 Eh

Summary of corrections to the electronic energy:
(perhaps to be used in another calculation)
Total thermal correction                  0.00419719 Eh       2.63 kcal/mol
Non-thermal (ZPE) correction              0.08097032 Eh      50.81 kcal/mol
-----------------------------------------------------------------------
Total correction                          0.08516751 Eh      53.44 kcal/mol

--------
ENTHALPY
--------

The enthalpy is H = U + kB*T
                kB is Boltzmann's constant
Total free energy                 ...   -154.53343113 Eh
Thermal Enthalpy correction       ...      0.00094421 Eh       0.59 kcal/mol
-----------------------------------------------------------------------
Total Enthalpy                    ...   -154.53248692 Eh

Note: Only C1 symmetry has been detected, increase convergence thresholds
      if your molecule has a higher symmetry. Symmetry factor of 1.0 is
      used for the rotational entropy correction.

Note: Rotational entropy computed according to Herzberg
Infrared and Raman Spectra, Chapter V,1, Van Nostrand Reinhold, 1945
Point Group:  C1, Symmetry Number:   1
Rotational constants in cm-1:     1.133786     0.306330     0.270447

Vibrational entropy computed according to the QRRHO of S. Grimme
Chem.Eur.J. 2012 18 9955

-------
ENTROPY
-------

The entropy contributions are T*S = T*(S(el)+S(vib)+S(rot)+S(trans))
     S(el)   - electronic entropy
     S(vib)  - vibrational entropy
     S(rot)  - rotational entropy
     S(trans)- translational entropy
The entropies will be listed as multiplied by the temperature to get
units of energy

Electronic entropy                ...      0.00000000 Eh      0.00 kcal/mol
Vibrational entropy               ...      0.00205350 Eh      1.29 kcal/mol
Rotational entropy                ...      0.01062740 Eh      6.67 kcal/mol
Translational entropy             ...      0.01777359 Eh     11.15 kcal/mol
-----------------------------------------------------------------------
Final entropy term                ...      0.03045449 Eh     19.11 kcal/mol

In case the symmetry of your molecule has not been determined correctly
or in case you have a reason to use a different symmetry number we print
out the resulting rotational entropy values for sn=1,12 :
 --------------------------------------------------------
|  sn= 1 | S(rot)=       0.01062740 Eh      6.67 kcal/mol|
|  sn= 2 | S(rot)=       0.00997295 Eh      6.26 kcal/mol|
|  sn= 3 | S(rot)=       0.00959011 Eh      6.02 kcal/mol|
|  sn= 4 | S(rot)=       0.00931849 Eh      5.85 kcal/mol|
|  sn= 5 | S(rot)=       0.00910780 Eh      5.72 kcal/mol|
|  sn= 6 | S(rot)=       0.00893566 Eh      5.61 kcal/mol|
|  sn= 7 | S(rot)=       0.00879011 Eh      5.52 kcal/mol|
|  sn= 8 | S(rot)=       0.00866403 Eh      5.44 kcal/mol|
|  sn= 9 | S(rot)=       0.00855283 Eh      5.37 kcal/mol|
|  sn=10 | S(rot)=       0.00845335 Eh      5.30 kcal/mol|
|  sn=11 | S(rot)=       0.00836336 Eh      5.25 kcal/mol|
|  sn=12 | S(rot)=       0.00828120 Eh      5.20 kcal/mol|
 --------------------------------------------------------

-------------------
GIBBS FREE ENERGY
-------------------

The Gibbs free energy is G = H - T*S

Total enthalpy                    ...   -154.53248692 Eh
Total entropy correction          ...     -0.03045449 Eh    -19.11 kcal/mol
-----------------------------------------------------------------------
Final Gibbs free energy         ...   -154.56294141 Eh

For completeness - the Gibbs free energy minus the electronic energy
G-E(el)                           ...      0.05565723 Eh     34.93 kcal/mol

                             ****ORCA TERMINATED NORMALLY****
TOTAL RUN TIME: 0 days 10 hours 43 minutes 42 seconds 495 msec
