 Gaussian 16, Revision A.03,
 Gaussian 16:  ES64L-G16RevA.03 25-Dec-2016

 ------------------------------------------------
 #p opt freq ccsd/cc-pvdz geom=connectivity polar
 ------------------------------------------------

 ---------
 Water.xyz
 ---------
 Symbolic Z-matrix:
 Charge =  0 Multiplicity = 1

 SCF Done:  E(RHF) =  -76.0259883706     A.U. after   10 cycles
 E2 =    -0.2025166801D+00 EUMP2 =    -0.76228505050669D+02
 SCF Done:  E(RHF) =  -76.0262819638     A.U. after    8 cycles
 E2 =    -0.2023826991D+00 EUMP2 =    -0.76228664662816D+02
 SCF Done:  E(RHF) =  -76.0262474019     A.U. after    7 cycles
 E2 =    -0.2024170617D+00 EUMP2 =    -0.76228664463589D+02
 Optimization completed.
    -- Stationary point found.
 Normal termination of Gaussian 16 at Thu Dec 16 11:32:31 2021.

 ----------------------------------------------------------------------
 #P Geom=AllCheck Guess=TCheck SCRF=Check GenChk RCCSD(FC)/CC-pVDZ Freq
 ----------------------------------------------------------------------

 Structure from the checkpoint file:  "CCSD_Water_gaus.chk"
 ---------
 Water.xyz
 ---------
 Charge =  0 Multiplicity = 1

                         Standard orientation:
 ---------------------------------------------------------------------
 Center     Atomic      Atomic             Coordinates (Angstroms)
 Number     Number       Type             X           Y           Z
 ---------------------------------------------------------------------
      1          8           0       -0.000000    0.121203    0.000000
      2          1           0        0.750812   -0.484811    0.000000
      3          1           0       -0.750812   -0.484811   -0.000000
 ---------------------------------------------------------------------

 SCF Done:  E(RHF) =  -76.0262474019     A.U. after    1 cycles
 E2 =    -0.2024170617D+00 EUMP2 =    -0.76228664463580D+02
 SCF Done:  E(RHF) =  -76.0262461887     A.U. after    7 cycles
 E2 =    -0.2024170666D+00 EUMP2 =    -0.76228663255360D+02
 SCF Done:  E(RHF) =  -76.0262461887     A.U. after    7 cycles
 E2 =    -0.2024170666D+00 EUMP2 =    -0.76228663255380D+02
 SCF Done:  E(RHF) =  -76.0261919512     A.U. after    7 cycles
 E2 =    -0.2024726439D+00 EUMP2 =    -0.76228664595082D+02
 SCF Done:  E(RHF) =  -76.0263010305     A.U. after    7 cycles
 E2 =    -0.2023615961D+00 EUMP2 =    -0.76228662626564D+02
 SCF Done:  E(RHF) =  -76.0262473569     A.U. after    2 cycles
 E2 =    -0.2024171069D+00 EUMP2 =    -0.76228664463740D+02
 SCF Done:  E(RHF) =  -76.0262222871     A.U. after    7 cycles
 E2 =    -0.2024407519D+00 EUMP2 =    -0.76228663039002D+02
 SCF Done:  E(RHF) =  -76.0262711729     A.U. after    7 cycles
 E2 =    -0.2023933906D+00 EUMP2 =    -0.76228664563520D+02
 SCF Done:  E(RHF) =  -76.0262742456     A.U. after    7 cycles
 E2 =    -0.2023893158D+00 EUMP2 =    -0.76228663561339D+02
 SCF Done:  E(RHF) =  -76.0262197058     A.U. after    7 cycles
 E2 =    -0.2024448393D+00 EUMP2 =    -0.76228664545159D+02
 SCF Done:  E(RHF) =  -76.0262473825     A.U. after    2 cycles
 E2 =    -0.2024170808D+00 EUMP2 =    -0.76228664463276D+02
 SCF Done:  E(RHF) =  -76.0262711729     A.U. after    7 cycles
 E2 =    -0.2023933906D+00 EUMP2 =    -0.76228664563530D+02
 SCF Done:  E(RHF) =  -76.0262222871     A.U. after    7 cycles
 E2 =    -0.2024407519D+00 EUMP2 =    -0.76228663038992D+02
 SCF Done:  E(RHF) =  -76.0262742456     A.U. after    7 cycles
 E2 =    -0.2023893158D+00 EUMP2 =    -0.76228663561347D+02
 SCF Done:  E(RHF) =  -76.0262197058     A.U. after    7 cycles
 E2 =    -0.2024448393D+00 EUMP2 =    -0.76228664545151D+02
 SCF Done:  E(RHF) =  -76.0262473825     A.U. after    2 cycles
 E2 =    -0.2024170808D+00 EUMP2 =    -0.76228664463275D+02

 Alpha  occ. eigenvalues --  -20.55304  -1.33471  -0.69080  -0.56994  -0.49346
 Alpha virt. eigenvalues --    0.18380   0.25537   0.77618   0.85751   1.16610
 Alpha virt. eigenvalues --    1.19965   1.25624   1.42394   1.48209   1.66018
 Alpha virt. eigenvalues --    1.86399   1.94024   2.42934   2.47582   3.29081

 Mulliken charges:
               1
     1  O   -0.273777
     2  H    0.136888
     3  H    0.136889
 Sum of Mulliken charges =  -0.00000

 Dipole moment (field-independent basis, Debye):
    X=              0.0000    Y=             -1.9825    Z=              0.0016  Tot=              1.9825
 Quadrupole moment (field-independent basis, Debye-Ang):
   XX=             -4.3599   YY=             -5.9071   ZZ=             -7.0733
   XY=             -0.0000   XZ=             -0.0018   YZ=             -0.0012

                      1                      2                      3
                     A'                     A'                     A'
 Frequencies --   1696.5141              3846.2836              3950.4438
 Red. masses --      1.0810                 1.0467                 1.0795
 Frc consts  --      1.8332                 9.1233                 9.9261
 IR Inten    --     56.1545                 4.4460                22.6260

 - Thermochemistry -
 -------------------
 Temperature   298.150 Kelvin.  Pressure   1.00000 Atm.
 Atom     1 has atomic number  8 and mass  15.99491

 Molecular mass:    18.01056 amu.
 Principal axes and moments of inertia in atomic units:
                           1         2         3
     Eigenvalues --     2.34765   4.05766   6.40531
           X            1.00000  -0.00000  -0.00000
           Y            0.00000   1.00000   0.00000
           Z            0.00000  -0.00000   1.00000
 This molecule is an asymmetric top.
 Rotational symmetry number  1.
 Rotational temperatures (Kelvin)     36.89393    21.34579    13.52222
 Rotational constants (GHZ):         768.74463   444.77410   281.75725
 Zero-point vibrational energy      56782.2 (Joules/Mol)
                                   13.57127 (Kcal/Mol)
 Vibrational temperatures:   2440.91  5533.94  5683.81
          (Kelvin)

 Zero-point correction=                           0.021627 (Hartree/Particle)
 Thermal correction to Energy=                    0.024462
 Thermal correction to Enthalpy=                  0.025406
 Thermal correction to Gibbs Free Energy=         0.003312
 Sum of electronic and zero-point Energies=            -76.216579
 Sum of electronic and thermal Energies=               -76.213744
 Sum of electronic and thermal Enthalpies=             -76.212800
 Sum of electronic and thermal Free Energies=          -76.234894

                     E (Thermal)             CV                S
                      KCal/Mol        Cal/Mol-Kelvin    Cal/Mol-Kelvin
 Total                   15.350              5.999             46.501
 Electronic               0.000              0.000              0.000
 Translational            0.889              2.981             34.608
 Rotational               0.889              2.981             11.888
 Vibrational             13.573              0.037              0.005

 Optimization completed.
    -- Stationary point found.
 Normal termination of Gaussian 16 at Thu Dec 16 11:35:21 2021.
