 Gaussian 16, Revision A.03,
 Gaussian 16:  ES64L-G16RevA.03 25-Dec-2016

 ------------------------------------------------
 #p opt freq ccsd/cc-pvdz geom=connectivity polar
 ------------------------------------------------

 -----------
 Methane.xyz
 -----------
 Symbolic Z-matrix:
 Charge =  0 Multiplicity = 1

 SCF Done:  E(RHF) =  -40.1987065304     A.U. after    8 cycles
 E2 =    -0.1613284366D+00 EUMP2 =    -0.40360034967044D+02
 SCF Done:  E(RHF) =  -40.1982992113     A.U. after    7 cycles
 E2 =    -0.1618404727D+00 EUMP2 =    -0.40360139683960D+02
 Optimization completed.
    -- Stationary point found.
 Normal termination of Gaussian 16 at Thu Dec 16 11:32:28 2021.

 ----------------------------------------------------------------------
 #P Geom=AllCheck Guess=TCheck SCRF=Check GenChk RCCSD(FC)/CC-pVDZ Freq
 ----------------------------------------------------------------------

 Structure from the checkpoint file:  "CCSD_Methane_gaus.chk"
 -----------
 Methane.xyz
 -----------
 Charge =  0 Multiplicity = 1

                         Standard orientation:
 ---------------------------------------------------------------------
 Center     Atomic      Atomic             Coordinates (Angstroms)
 Number     Number       Type             X           Y           Z
 ---------------------------------------------------------------------
      1          6           0        0.000000    0.000000   -0.000000
      2          1           0       -0.689577    0.378956   -0.773291
      3          1           0       -0.414327    0.215185    0.999565
      4          1           0        0.979925    0.495516   -0.106366
      5          1           0        0.123977   -1.089658   -0.119907
 ---------------------------------------------------------------------

 SCF Done:  E(RHF) =  -40.1982992113     A.U. after    1 cycles
 E2 =    -0.1618404726D+00 EUMP2 =    -0.40360139683937D+02
 SCF Done:  E(RHF) =  -40.1982981754     A.U. after    6 cycles
 E2 =    -0.1618404985D+00 EUMP2 =    -0.40360138673933D+02
 SCF Done:  E(RHF) =  -40.1982981776     A.U. after    6 cycles
 E2 =    -0.1618404983D+00 EUMP2 =    -0.40360138675961D+02
 SCF Done:  E(RHF) =  -40.1982981780     A.U. after    6 cycles
 E2 =    -0.1618404985D+00 EUMP2 =    -0.40360138676466D+02
 SCF Done:  E(RHF) =  -40.1982981751     A.U. after    6 cycles
 E2 =    -0.1618404984D+00 EUMP2 =    -0.40360138673427D+02
 SCF Done:  E(RHF) =  -40.1982981761     A.U. after    6 cycles
 E2 =    -0.1618404984D+00 EUMP2 =    -0.40360138674464D+02
 SCF Done:  E(RHF) =  -40.1982981770     A.U. after    6 cycles
 E2 =    -0.1618404985D+00 EUMP2 =    -0.40360138675432D+02
 SCF Done:  E(RHF) =  -40.1983091648     A.U. after    6 cycles
 E2 =    -0.1618331958D+00 EUMP2 =    -0.40360142360574D+02
 E2 =    -0.1618477601D+00 EUMP2 =    -0.40360136413735D+02
 E2 =    -0.1618444855D+00 EUMP2 =    -0.40360137903636D+02
 E2 =    -0.1618364818D+00 EUMP2 =    -0.40360141171605D+02
 E2 =    -0.1618323097D+00 EUMP2 =    -0.40360142665352D+02
 E2 =    -0.1618486420D+00 EUMP2 =    -0.40360135997923D+02
 E2 =    -0.1618361078D+00 EUMP2 =    -0.40360141311658D+02
 E2 =    -0.1618448586D+00 EUMP2 =    -0.40360137738143D+02
 E2 =    -0.1618427577D+00 EUMP2 =    -0.40360138653874D+02
 E2 =    -0.1618382129D+00 EUMP2 =    -0.40360140509590D+02
 E2 =    -0.1618510246D+00 EUMP2 =    -0.40360134840935D+02
 E2 =    -0.1618299133D+00 EUMP2 =    -0.40360143458623D+02
 E2 =    -0.1618508179D+00 EUMP2 =    -0.40360134942739D+02
 E2 =    -0.1618301213D+00 EUMP2 =    -0.40360143392071D+02
 SCF Done:  E(RHF) =  -40.1982916402     A.U. after    6 cycles
 E2 =    -0.1618457146D+00 EUMP2 =    -0.40360137354877D+02
 SCF Done:  E(RHF) =  -40.1983063788     A.U. after    6 cycles
 E2 =    -0.1618352492D+00 EUMP2 =    -0.40360141627949D+02
 SCF Done:  E(RHF) =  -40.1983006935     A.U. after    6 cycles
 E2 =    -0.1618393627D+00 EUMP2 =    -0.40360140056191D+02
 SCF Done:  E(RHF) =  -40.1982975298     A.U. after    6 cycles
 E2 =    -0.1618416092D+00 EUMP2 =    -0.40360139138998D+02
 SCF Done:  E(RHF) =  -40.1982972661     A.U. after    6 cycles
 E2 =    -0.1618417951D+00 EUMP2 =    -0.40360139061203D+02
 SCF Done:  E(RHF) =  -40.1983009537     A.U. after    6 cycles
 E2 =    -0.1618391766D+00 EUMP2 =    -0.40360140130308D+02
 SCF Done:  E(RHF) =  -40.1983148028     A.U. after    6 cycles
 E2 =    -0.1618289586D+00 EUMP2 =    -0.40360143761414D+02
 SCF Done:  E(RHF) =  -40.1982823947     A.U. after    6 cycles
 E2 =    -0.1618519728D+00 EUMP2 =    -0.40360134367486D+02
 SCF Done:  E(RHF) =  -40.1983008935     A.U. after    6 cycles
 E2 =    -0.1618392196D+00 EUMP2 =    -0.40360140113169D+02
 SCF Done:  E(RHF) =  -40.1982973271     A.U. after    6 cycles
 E2 =    -0.1618417521D+00 EUMP2 =    -0.40360139079242D+02

 Alpha  occ. eigenvalues --  -11.22230  -0.93656  -0.53935  -0.53926  -0.53914
 Alpha virt. eigenvalues --    0.19132   0.27193   0.27193   0.27194   0.59014
 Alpha virt. eigenvalues --    0.59025   0.59036   0.88269   0.88275   0.88277
 Alpha virt. eigenvalues --    0.91782   1.12967   1.12982   1.25438   1.67517

 Mulliken charges:
               1
     1  C   -0.165353
     2  H    0.041302
     3  H    0.041377
     4  H    0.041330
     5  H    0.041344
 Sum of Mulliken charges =  -0.00000

 Dipole moment (field-independent basis, Debye):
    X=             -0.0000    Y=              0.0001    Z=             -0.0003  Tot=              0.0003
 Quadrupole moment (field-independent basis, Debye-Ang):
   XX=             -8.4405   YY=             -8.4407   ZZ=             -8.4400
   XY=              0.0000   XZ=             -0.0003   YZ=              0.0016

                      1                      2                      3
                      A                      A                      A
 Frequencies --   1343.3232              1343.3252              1343.3263
 Red. masses --      1.1787                 1.1787                 1.1787
 Frc consts  --      1.2532                 1.2532                 1.2532
 IR Inten    --      9.0222                 9.0220                 9.0219

                      4                      5                      6
                      A                      A                      A
 Frequencies --   1557.9290              1557.9313              3048.9277
 Red. masses --      1.0078                 1.0078                 1.0078
 Frc consts  --      1.4412                 1.4412                 5.5199
 IR Inten    --      0.0000                 0.0000                 0.0000

                      7                      8                      9
                      A                      A                      A
 Frequencies --   3181.1796              3181.1817              3181.1851
 Red. masses --      1.1019                 1.1019                 1.1019
 Frc consts  --      6.5699                 6.5699                 6.5699
 IR Inten    --     23.3225                23.3226                23.3227

 - Thermochemistry -
 -------------------
 Temperature   298.150 Kelvin.  Pressure   1.00000 Atm.
 Atom     1 has atomic number  6 and mass  12.00000

 Molecular mass:    16.03130 amu.
 Principal axes and moments of inertia in atomic units:
                           1         2         3
     Eigenvalues --    11.68096  11.68097  11.68098
           X            1.00000  -0.00000   0.00000
           Y            0.00000   1.00000   0.00000
           Z           -0.00000  -0.00000   1.00000
 This molecule is an asymmetric top.
 Rotational symmetry number  1.
 Rotational temperatures (Kelvin)      7.41497     7.41496     7.41496
 Rotational constants (GHZ):         154.50285   154.50267   154.50259
 Zero-point vibrational energy     118061.3 (Joules/Mol)
                                   28.21733 (Kcal/Mol)
 Vibrational temperatures:   1932.74  1932.75  1932.75  2241.51  2241.52
          (Kelvin)           4386.73  4577.01  4577.01  4577.02

 Zero-point correction=                           0.044967 (Hartree/Particle)
 Thermal correction to Energy=                    0.047836
 Thermal correction to Enthalpy=                  0.048780
 Thermal correction to Gibbs Free Energy=         0.025271
 Sum of electronic and zero-point Energies=            -40.338881
 Sum of electronic and thermal Energies=               -40.336013
 Sum of electronic and thermal Enthalpies=             -40.335068
 Sum of electronic and thermal Free Energies=          -40.358577

                     E (Thermal)             CV                S
                      KCal/Mol        Cal/Mol-Kelvin    Cal/Mol-Kelvin
 Total                   30.017              6.469             49.478
 Electronic               0.000              0.000              0.000
 Translational            0.889              2.981             34.261
 Rotational               0.889              2.981             15.130
 Vibrational             28.240              0.507              0.087

 Optimization completed.
    -- Stationary point found.
 Normal termination of Gaussian 16 at Thu Dec 16 11:38:29 2021.
