 Gaussian 16, Revision A.03,
 Gaussian 16:  ES64L-G16RevA.03 25-Dec-2016

 -------------------------------------------------------------
 #p eomccsd=(nstate=10)/cc-pvdz guess=read geom=allcheck polar
 -------------------------------------------------------------

 Structure from the checkpoint file:  "CCSD_Ethanol_gaus.chk"
 -----------
 Ethanol.xyz
 -----------
 Charge =  0 Multiplicity = 1

                         Standard orientation:
 ---------------------------------------------------------------------
 Center     Atomic      Atomic             Coordinates (Angstroms)
 Number     Number       Type             X           Y           Z
 ---------------------------------------------------------------------
      1          6           0       -1.213803   -0.239120   -0.022418
      2          6           0        0.088520    0.557956    0.046562
      3          8           0        1.237856   -0.263242   -0.108594
      4          1           0       -2.092337    0.428946    0.039268
      5          1           0       -1.277469   -0.959333    0.815942
      6          1           0       -1.263894   -0.807277   -0.967873
      7          1           0        0.129619    1.136372    0.994386
      8          1           0        0.129940    1.288781   -0.780150
      9          1           0        1.222992   -0.894572    0.622316
 ---------------------------------------------------------------------

 SCF Done:  E(RHF) =  -154.091209459     A.U. after    1 cycles
 E2 =    -0.4825255572D+00 EUMP2 =    -0.15457373501636D+03
 SCF Done:  E(RHF) =  -154.091377360     A.U. after    8 cycles
 E2 =    -0.4824980044D+00 EUMP2 =    -0.15457387536489D+03
 SCF Done:  E(RHF) =  -154.091044602     A.U. after    8 cycles
 E2 =    -0.4825532099D+00 EUMP2 =    -0.15457359781185D+03
 SCF Done:  E(RHF) =  -154.091229102     A.U. after    8 cycles
 E2 =    -0.4825340914D+00 EUMP2 =    -0.15457376319291D+03
 SCF Done:  E(RHF) =  -154.091192835     A.U. after    8 cycles
 E2 =    -0.4825170726D+00 EUMP2 =    -0.15457370990743D+03
 SCF Done:  E(RHF) =  -154.091050091     A.U. after    7 cycles
 E2 =    -0.4825371565D+00 EUMP2 =    -0.15457358724792D+03
 SCF Done:  E(RHF) =  -154.091371684     A.U. after    7 cycles
 E2 =    -0.4825139863D+00 EUMP2 =    -0.15457388566992D+03

 Excitation energies and oscillator strengths:

 ----------------------------------------------
 Excited State   1:      Singlet-?Sym    7.8873 eV  157.19 nm  f=0.0053
 Right Eigenvector
 Alpha Singles Amplitudes
     I    SymI    A    SymA    Value
    10      1    14      1    0.107802
    13      1    14      1    0.547052
    13      1    15      1    0.284499
    13      1    16      1   -0.111430
    13      1    17      1    0.157178
 Beta  Singles Amplitudes
     I    SymI    A    SymA    Value
    10      1    14      1    0.107802
    13      1    14      1    0.547052
    13      1    15      1    0.284499
    13      1    16      1   -0.111430
    13      1    17      1    0.157178
 Left  Eigenvector
 Alpha Singles Amplitudes
     I    SymI    A    SymA    Value
    10      1    14      1    0.106591
    13      1    14      1    0.541860
    13      1    15      1    0.282532
    13      1    16      1   -0.110926
    13      1    17      1    0.156060
 Beta  Singles Amplitudes
     I    SymI    A    SymA    Value
    10      1    14      1    0.106591
    13      1    14      1    0.541860
    13      1    15      1    0.282532
    13      1    16      1   -0.110926
    13      1    17      1    0.156060
 Total Energy, E(EOM-CCSD) =  -154.321954435

 ----------------------------------------------
 Excited State   2:      Singlet-?Sym    9.6444 eV  128.56 nm  f=0.0279
 Right Eigenvector
 Alpha Singles Amplitudes
     I    SymI    A    SymA    Value
    13      1    14      1    0.334407
    13      1    15      1   -0.527078
    13      1    16      1   -0.110727
    13      1    18      1    0.145902
 Beta  Singles Amplitudes
     I    SymI    A    SymA    Value
    13      1    14      1    0.334407
    13      1    15      1   -0.527078
    13      1    16      1   -0.110727
    13      1    18      1    0.145902
 Left  Eigenvector
 Alpha Singles Amplitudes
     I    SymI    A    SymA    Value
    13      1    14      1    0.329562
    13      1    15      1   -0.521423
    13      1    16      1   -0.111243
    13      1    18      1    0.143632
 Beta  Singles Amplitudes
     I    SymI    A    SymA    Value
    13      1    14      1    0.329562
    13      1    15      1   -0.521423
    13      1    16      1   -0.111243
    13      1    18      1    0.143632

 ----------------------------------------------
 Excited State   3:      Singlet-?Sym    9.9743 eV  124.30 nm  f=0.0135
 Right Eigenvector
 Alpha Singles Amplitudes
     I    SymI    A    SymA    Value
    10      1    14      1    0.138141
    11      1    14      1    0.152315
    12      1    14      1    0.572569
    12      1    15      1    0.123378
    12      1    16      1   -0.117754
    12      1    17      1    0.106117
 Beta  Singles Amplitudes
     I    SymI    A    SymA    Value
    10      1    14      1    0.138141
    11      1    14      1    0.152315
    12      1    14      1    0.572569
    12      1    15      1    0.123378
    12      1    16      1   -0.117754
    12      1    17      1    0.106117
 Left  Eigenvector
 Alpha Singles Amplitudes
     I    SymI    A    SymA    Value
    10      1    14      1    0.137495
    11      1    14      1    0.150794
    12      1    14      1    0.568408
    12      1    15      1    0.121731
    12      1    16      1   -0.118423
    12      1    17      1    0.105731
 Beta  Singles Amplitudes
     I    SymI    A    SymA    Value
    10      1    14      1    0.137495
    11      1    14      1    0.150794
    12      1    14      1    0.568408
    12      1    15      1    0.121731
    12      1    16      1   -0.118423
    12      1    17      1    0.105731

 ----------------------------------------------
 Excited State   4:      Singlet-?Sym   10.4353 eV  118.81 nm  f=0.0117
 Right Eigenvector
 Alpha Singles Amplitudes
     I    SymI    A    SymA    Value
    13      1    14      1    0.154910
    13      1    15      1    0.135424
    13      1    16      1    0.447853
    13      1    17      1   -0.343057
    13      1    18      1    0.169868
    13      1    20      1    0.207956
 Beta  Singles Amplitudes
     I    SymI    A    SymA    Value
    13      1    14      1    0.154910
    13      1    15      1    0.135424
    13      1    16      1    0.447853
    13      1    17      1   -0.343057
    13      1    18      1    0.169868
    13      1    20      1    0.207956
 Left  Eigenvector
 Alpha Singles Amplitudes
     I    SymI    A    SymA    Value
    13      1    14      1    0.151613
    13      1    15      1    0.135780
    13      1    16      1    0.444278
    13      1    17      1   -0.338101
    13      1    18      1    0.167919
    13      1    20      1    0.206296
 Beta  Singles Amplitudes
     I    SymI    A    SymA    Value
    13      1    14      1    0.151613
    13      1    15      1    0.135780
    13      1    16      1    0.444278
    13      1    17      1   -0.338101
    13      1    18      1    0.167919
    13      1    20      1    0.206296

 ----------------------------------------------
 Excited State   5:      Singlet-?Sym   10.5753 eV  117.24 nm  f=0.1488
 Right Eigenvector
 Alpha Singles Amplitudes
     I    SymI    A    SymA    Value
    13      1    15      1   -0.168704
    13      1    16      1    0.437383
    13      1    17      1    0.424522
    13      1    18      1   -0.107569
    13      1    19      1    0.145872
 Beta  Singles Amplitudes
     I    SymI    A    SymA    Value
    13      1    15      1   -0.168704
    13      1    16      1    0.437383
    13      1    17      1    0.424522
    13      1    18      1   -0.107569
    13      1    19      1    0.145872
 Left  Eigenvector
 Alpha Singles Amplitudes
     I    SymI    A    SymA    Value
    13      1    15      1   -0.167069
    13      1    16      1    0.433292
    13      1    17      1    0.419537
    13      1    18      1   -0.106092
    13      1    19      1    0.142645
 Beta  Singles Amplitudes
     I    SymI    A    SymA    Value
    13      1    15      1   -0.167069
    13      1    16      1    0.433292
    13      1    17      1    0.419537
    13      1    18      1   -0.106092
    13      1    19      1    0.142645

 ----------------------------------------------
 Excited State   6:      Singlet-?Sym   11.0312 eV  112.39 nm  f=0.0116
 Right Eigenvector
 Alpha Singles Amplitudes
     I    SymI    A    SymA    Value
    10      1    14      1    0.224046
    11      1    14      1    0.261927
    12      1    14      1   -0.299655
    12      1    15      1    0.425954
    12      1    17      1    0.109451
 Beta  Singles Amplitudes
     I    SymI    A    SymA    Value
    10      1    14      1    0.224046
    11      1    14      1    0.261927
    12      1    14      1   -0.299655
    12      1    15      1    0.425954
    12      1    17      1    0.109451
 Left  Eigenvector
 Alpha Singles Amplitudes
     I    SymI    A    SymA    Value
    10      1    14      1    0.220860
    11      1    14      1    0.260388
    12      1    14      1   -0.298264
    12      1    15      1    0.423245
    12      1    17      1    0.109540
 Beta  Singles Amplitudes
     I    SymI    A    SymA    Value
    10      1    14      1    0.220860
    11      1    14      1    0.260388
    12      1    14      1   -0.298264
    12      1    15      1    0.423245
    12      1    17      1    0.109540

 ----------------------------------------------
 Excited State   7:      Singlet-?Sym   11.3785 eV  108.96 nm  f=0.0455
 Right Eigenvector
 Alpha Singles Amplitudes
     I    SymI    A    SymA    Value
    10      1    14      1   -0.174613
    13      1    14      1    0.101438
    13      1    17      1   -0.260577
    13      1    18      1   -0.470746
    13      1    20      1   -0.266925
 Beta  Singles Amplitudes
     I    SymI    A    SymA    Value
    10      1    14      1   -0.174613
    13      1    14      1    0.101438
    13      1    17      1   -0.260577
    13      1    18      1   -0.470746
    13      1    20      1   -0.266925
 Left  Eigenvector
 Alpha Singles Amplitudes
     I    SymI    A    SymA    Value
    10      1    14      1   -0.177442
    13      1    14      1    0.101396
    13      1    17      1   -0.257392
    13      1    18      1   -0.466748
    13      1    20      1   -0.261436
 Beta  Singles Amplitudes
     I    SymI    A    SymA    Value
    10      1    14      1   -0.177442
    13      1    14      1    0.101396
    13      1    17      1   -0.257392
    13      1    18      1   -0.466748
    13      1    20      1   -0.261436

 ----------------------------------------------
 Excited State   8:      Singlet-?Sym   11.6484 eV  106.44 nm  f=0.1629
 Right Eigenvector
 Alpha Singles Amplitudes
     I    SymI    A    SymA    Value
    11      1    14      1   -0.580339
    11      1    15      1    0.130430
    12      1    15      1    0.257079
 Beta  Singles Amplitudes
     I    SymI    A    SymA    Value
    11      1    14      1   -0.580339
    11      1    15      1    0.130430
    12      1    15      1    0.257079
 Left  Eigenvector
 Alpha Singles Amplitudes
     I    SymI    A    SymA    Value
    11      1    14      1   -0.576173
    11      1    15      1    0.128781
    12      1    15      1    0.255219
 Beta  Singles Amplitudes
     I    SymI    A    SymA    Value
    11      1    14      1   -0.576173
    11      1    15      1    0.128781
    12      1    15      1    0.255219

 ----------------------------------------------
 Excited State   9:      Singlet-?Sym   11.7748 eV  105.30 nm  f=0.2390
 Right Eigenvector
 Alpha Singles Amplitudes
     I    SymI    A    SymA    Value
    10      1    14      1   -0.404603
    12      1    14      1    0.110500
    12      1    15      1    0.278908
    12      1    16      1    0.361829
    12      1    17      1   -0.122462
    13      1    18      1    0.158185
 Beta  Singles Amplitudes
     I    SymI    A    SymA    Value
    10      1    14      1   -0.404603
    12      1    14      1    0.110500
    12      1    15      1    0.278908
    12      1    16      1    0.361829
    12      1    17      1   -0.122462
    13      1    18      1    0.158185
 Left  Eigenvector
 Alpha Singles Amplitudes
     I    SymI    A    SymA    Value
    10      1    14      1   -0.398946
    12      1    14      1    0.109358
    12      1    15      1    0.277726
    12      1    16      1    0.364363
    12      1    17      1   -0.126719
    13      1    18      1    0.152736
 Beta  Singles Amplitudes
     I    SymI    A    SymA    Value
    10      1    14      1   -0.398946
    12      1    14      1    0.109358
    12      1    15      1    0.277726
    12      1    16      1    0.364363
    12      1    17      1   -0.126719
    13      1    18      1    0.152736

 ----------------------------------------------
 Excited State  10:      Singlet-?Sym   11.8419 eV  104.70 nm  f=0.0181
 Right Eigenvector
 Alpha Singles Amplitudes
     I    SymI    A    SymA    Value
    12      1    17      1    0.119822
    13      1    15      1    0.101615
    13      1    19      1    0.611888
 Beta  Singles Amplitudes
     I    SymI    A    SymA    Value
    12      1    17      1    0.119822
    13      1    15      1    0.101615
    13      1    19      1    0.611888
 Left  Eigenvector
 Alpha Singles Amplitudes
     I    SymI    A    SymA    Value
    12      1    16      1   -0.105430
    12      1    17      1    0.123094
    13      1    19      1    0.604560
 Beta  Singles Amplitudes
     I    SymI    A    SymA    Value
    12      1    16      1   -0.105430
    12      1    17      1    0.123094
    13      1    19      1    0.604560
 Ground to excited state transition densities written to RWF  633

 Alpha  occ. eigenvalues --  -20.55111 -11.28034 -11.22958  -1.35272  -1.00594
 Alpha  occ. eigenvalues --   -0.84049  -0.67943  -0.61569  -0.60043  -0.53909
 Alpha  occ. eigenvalues --   -0.52045  -0.47603  -0.43619
 Alpha virt. eigenvalues --    0.17798   0.21868   0.23280   0.25212   0.26330
 Alpha virt. eigenvalues --    0.28460   0.38159   0.40034   0.59531   0.62087
 Alpha virt. eigenvalues --    0.66005   0.72393   0.75085   0.80287   0.84634

 Mulliken charges:
               1
     1  C   -0.074438
     2  C    0.110519
     3  O    0.212434
     4  H    0.047648
     5  H    0.025283
     6  H    0.053633
     7  H    0.039259
     8  H    0.052135
     9  H   -0.466472
 Sum of Mulliken charges =  -0.00000

 Dipole moment (field-independent basis, Debye):
    X=             -1.9609    Y=              2.4502    Z=             -1.4808  Tot=              3.4701
 Quadrupole moment (field-independent basis, Debye-Ang):
   XX=            -23.3579   YY=            -23.0369   ZZ=            -23.4906
   XY=              2.2189   XZ=             -1.5292   YZ=              2.2442

 Isotropic polarizability=       50.93 Bohr**3.
                1             2             3

 Normal termination of Gaussian 16 at Tue Dec 14 23:52:14 2021.
