 Gaussian 16, Revision A.03,
 Gaussian 16:  ES64L-G16RevA.03 25-Dec-2016

 -------------------------------------------------------------
 #p eomccsd=(nstate=10)/cc-pvdz guess=read geom=allcheck polar
 -------------------------------------------------------------

 Structure from the checkpoint file:  "CCSD_Methane_gaus.chk"
 -----------
 Methane.xyz
 -----------
 Charge =  0 Multiplicity = 1

                         Standard orientation:
 ---------------------------------------------------------------------
 Center     Atomic      Atomic             Coordinates (Angstroms)
 Number     Number       Type             X           Y           Z
 ---------------------------------------------------------------------
      1          6           0        0.000000    0.000000   -0.000000
      2          1           0       -0.689577    0.378956   -0.773291
      3          1           0       -0.414327    0.215185    0.999565
      4          1           0        0.979925    0.495516   -0.106367
      5          1           0        0.123977   -1.089658   -0.119907
 ---------------------------------------------------------------------

 SCF Done:  E(RHF) =  -40.1982992113     A.U. after    1 cycles
 E2 =    -0.1618404726D+00 EUMP2 =    -0.40360139683932D+02
 SCF Done:  E(RHF) =  -40.1982999523     A.U. after    6 cycles
 E2 =    -0.1618404689D+00 EUMP2 =    -0.40360140421123D+02
 SCF Done:  E(RHF) =  -40.1982999519     A.U. after    6 cycles
 E2 =    -0.1618404689D+00 EUMP2 =    -0.40360140420714D+02
 SCF Done:  E(RHF) =  -40.1982999519     A.U. after    6 cycles
 E2 =    -0.1618404689D+00 EUMP2 =    -0.40360140420757D+02
 SCF Done:  E(RHF) =  -40.1982999522     A.U. after    6 cycles
 E2 =    -0.1618404688D+00 EUMP2 =    -0.40360140421079D+02
 SCF Done:  E(RHF) =  -40.1982999521     A.U. after    6 cycles
 E2 =    -0.1618404688D+00 EUMP2 =    -0.40360140420964D+02
 SCF Done:  E(RHF) =  -40.1982999520     A.U. after    6 cycles
 E2 =    -0.1618404689D+00 EUMP2 =    -0.40360140420871D+02

 Excitation energies and oscillator strengths:

 ----------------------------------------------
 Excited State   1:      Singlet-?Sym   12.1670 eV  101.90 nm  f=0.2615
 Right Eigenvector
 Alpha Singles Amplitudes
     I    SymI    A    SymA    Value
     5      1     6      1   -0.683438
 Beta  Singles Amplitudes
     I    SymI    A    SymA    Value
     5      1     6      1   -0.683438
 Left  Eigenvector
 Alpha Singles Amplitudes
     I    SymI    A    SymA    Value
     5      1     6      1   -0.680143
 Beta  Singles Amplitudes
     I    SymI    A    SymA    Value
     5      1     6      1   -0.680143
 Total Energy, E(EOM-CCSD) =  -39.9367216155

 ----------------------------------------------
 Excited State   2:      Singlet-?Sym   12.1684 eV  101.89 nm  f=0.2648
 Right Eigenvector
 Alpha Singles Amplitudes
     I    SymI    A    SymA    Value
     4      1     6      1    0.683428
 Beta  Singles Amplitudes
     I    SymI    A    SymA    Value
     4      1     6      1    0.683428
 Left  Eigenvector
 Alpha Singles Amplitudes
     I    SymI    A    SymA    Value
     4      1     6      1    0.680146
 Beta  Singles Amplitudes
     I    SymI    A    SymA    Value
     4      1     6      1    0.680146

 ----------------------------------------------
 Excited State   3:      Singlet-?Sym   12.1692 eV  101.88 nm  f=0.2667
 Right Eigenvector
 Alpha Singles Amplitudes
     I    SymI    A    SymA    Value
     3      1     6      1    0.683422
 Beta  Singles Amplitudes
     I    SymI    A    SymA    Value
     3      1     6      1    0.683422
 Left  Eigenvector
 Alpha Singles Amplitudes
     I    SymI    A    SymA    Value
     3      1     6      1    0.680148
 Beta  Singles Amplitudes
     I    SymI    A    SymA    Value
     3      1     6      1    0.680148

 ----------------------------------------------
 Excited State   4:      Singlet-?Sym   13.8354 eV   89.61 nm  f=0.0001
 Right Eigenvector
 Alpha Singles Amplitudes
     I    SymI    A    SymA    Value
     3      1     8      1   -0.471282
     4      1     7      1    0.485596
 Beta  Singles Amplitudes
     I    SymI    A    SymA    Value
     3      1     8      1   -0.471282
     4      1     7      1    0.485596
 Left  Eigenvector
 Alpha Singles Amplitudes
     I    SymI    A    SymA    Value
     3      1     8      1   -0.469453
     4      1     7      1    0.483701
 Beta  Singles Amplitudes
     I    SymI    A    SymA    Value
     3      1     8      1   -0.469453
     4      1     7      1    0.483701

 ----------------------------------------------
 Excited State   5:      Singlet-?Sym   13.8397 eV   89.59 nm  f=0.0002
 Right Eigenvector
 Alpha Singles Amplitudes
     I    SymI    A    SymA    Value
     3      1     9      1   -0.456848
     5      1     7      1    0.499186
 Beta  Singles Amplitudes
     I    SymI    A    SymA    Value
     3      1     9      1   -0.456848
     5      1     7      1    0.499186
 Left  Eigenvector
 Alpha Singles Amplitudes
     I    SymI    A    SymA    Value
     3      1     9      1   -0.455083
     5      1     7      1    0.497231
 Beta  Singles Amplitudes
     I    SymI    A    SymA    Value
     3      1     9      1   -0.455083
     5      1     7      1    0.497231

 ----------------------------------------------
 Excited State   6:      Singlet-?Sym   13.8429 eV   89.57 nm  f=0.0001
 Right Eigenvector
 Alpha Singles Amplitudes
     I    SymI    A    SymA    Value
     4      1     9      1   -0.465592
     5      1     8      1    0.491028
 Beta  Singles Amplitudes
     I    SymI    A    SymA    Value
     4      1     9      1   -0.465592
     5      1     8      1    0.491028
 Left  Eigenvector
 Alpha Singles Amplitudes
     I    SymI    A    SymA    Value
     4      1     9      1   -0.463789
     5      1     8      1    0.489109
 Beta  Singles Amplitudes
     I    SymI    A    SymA    Value
     4      1     9      1   -0.463789
     5      1     8      1    0.489109

 ----------------------------------------------
 Excited State   7:      Singlet-?Sym   14.1388 eV   87.69 nm  f=0.0006
 Right Eigenvector
 Alpha Singles Amplitudes
     I    SymI    A    SymA    Value
     3      1     8      1   -0.342207
     4      1     7      1   -0.330811
     4      1     9      1    0.353620
     5      1     8      1    0.332971
 Beta  Singles Amplitudes
     I    SymI    A    SymA    Value
     3      1     8      1   -0.342207
     4      1     7      1   -0.330811
     4      1     9      1    0.353620
     5      1     8      1    0.332971
 Left  Eigenvector
 Alpha Singles Amplitudes
     I    SymI    A    SymA    Value
     3      1     8      1   -0.340725
     4      1     7      1   -0.329373
     4      1     9      1    0.352136
     5      1     8      1    0.331563
 Beta  Singles Amplitudes
     I    SymI    A    SymA    Value
     3      1     8      1   -0.340725
     4      1     7      1   -0.329373
     4      1     9      1    0.352136
     5      1     8      1    0.331563

 ----------------------------------------------
 Excited State   8:      Singlet-?Sym   14.1392 eV   87.69 nm  f=0.0003
 Right Eigenvector
 Alpha Singles Amplitudes
     I    SymI    A    SymA    Value
     3      1     7      1    0.189319
     3      1     9      1    0.430315
     4      1     8      1   -0.282010
     5      1     7      1    0.391662
 Beta  Singles Amplitudes
     I    SymI    A    SymA    Value
     3      1     7      1    0.189319
     3      1     9      1    0.430315
     4      1     8      1   -0.282010
     5      1     7      1    0.391662
 Left  Eigenvector
 Alpha Singles Amplitudes
     I    SymI    A    SymA    Value
     3      1     7      1    0.188490
     3      1     9      1    0.428491
     4      1     8      1   -0.280799
     5      1     7      1    0.389983
 Beta  Singles Amplitudes
     I    SymI    A    SymA    Value
     3      1     7      1    0.188490
     3      1     9      1    0.428491
     4      1     8      1   -0.280799
     5      1     7      1    0.389983

 ----------------------------------------------
 Excited State   9:      Singlet-?Sym   14.2878 eV   86.78 nm  f=0.4230
 Right Eigenvector
 Alpha Singles Amplitudes
     I    SymI    A    SymA    Value
     3      1     7      1   -0.483836
     3      1     9      1    0.221864
     4      1     8      1    0.345529
     5      1     7      1    0.207002
     5      1     9      1    0.135137
 Beta  Singles Amplitudes
     I    SymI    A    SymA    Value
     3      1     7      1   -0.483836
     3      1     9      1    0.221864
     4      1     8      1    0.345529
     5      1     7      1    0.207002
     5      1     9      1    0.135137
 Left  Eigenvector
 Alpha Singles Amplitudes
     I    SymI    A    SymA    Value
     3      1     7      1   -0.481990
     3      1     9      1    0.221040
     4      1     8      1    0.344203
     5      1     7      1    0.206221
     5      1     9      1    0.134626
 Beta  Singles Amplitudes
     I    SymI    A    SymA    Value
     3      1     7      1   -0.481990
     3      1     9      1    0.221040
     4      1     8      1    0.344203
     5      1     7      1    0.206221
     5      1     9      1    0.134626

 ----------------------------------------------
 Excited State  10:      Singlet-?Sym   14.2898 eV   86.76 nm  f=0.4246
 Right Eigenvector
 Alpha Singles Amplitudes
     I    SymI    A    SymA    Value
     3      1     8      1    0.348308
     4      1     7      1    0.339651
     4      1     9      1    0.344450
     5      1     8      1    0.329512
 Beta  Singles Amplitudes
     I    SymI    A    SymA    Value
     3      1     8      1    0.348308
     4      1     7      1    0.339651
     4      1     9      1    0.344450
     5      1     8      1    0.329512
 Left  Eigenvector
 Alpha Singles Amplitudes
     I    SymI    A    SymA    Value
     3      1     8      1    0.346968
     4      1     7      1    0.338336
     4      1     9      1    0.343170
     5      1     8      1    0.328276
 Beta  Singles Amplitudes
     I    SymI    A    SymA    Value
     3      1     8      1    0.346968
     4      1     7      1    0.338336
     4      1     9      1    0.343170
     5      1     8      1    0.328276
 Ground to excited state transition densities written to RWF  633

 Alpha  occ. eigenvalues --  -11.22229  -0.93657  -0.53934  -0.53928  -0.53916
 Alpha virt. eigenvalues --    0.19132   0.27154   0.27186   0.27242   0.59016
 Alpha virt. eigenvalues --    0.59026   0.59032   0.88262   0.88272   0.88290
 Alpha virt. eigenvalues --    0.91785   1.12975   1.12975   1.25439   1.67521

 Mulliken charges:
               1
     1  C    0.355697
     2  H   -0.123387
     3  H   -0.015787
     4  H   -0.108011
     5  H   -0.108511
 Sum of Mulliken charges =  -0.00000

 Dipole moment (field-independent basis, Debye):
    X=             -0.1015    Y=              0.0534    Z=              0.3949  Tot=              0.4112
 Quadrupole moment (field-independent basis, Debye-Ang):
   XX=            -12.4469   YY=            -12.6793   ZZ=            -11.6574
   XY=             -0.1620   XZ=             -0.6350   YZ=              0.3291

 Isotropic polarizability=      424.71 Bohr**3.
                1             2             3

 Normal termination of Gaussian 16 at Tue Dec 14 23:11:51 2021.
