 Gaussian 16, Revision A.03,
 Gaussian 16:  ES64L-G16RevA.03 25-Dec-2016

 ------------------------------------------------
 #p opt freq ccsd/cc-pvdz geom=connectivity polar
 ------------------------------------------------

 -----------
 Ethanol.xyz
 -----------
 Symbolic Z-matrix:
 Charge =  0 Multiplicity = 1

 SCF Done:  E(RHF) =  -154.090952449     A.U. after   12 cycles
 E2 =    -0.4813475697D+00 EUMP2 =    -0.15457230001863D+03
 SCF Done:  E(RHF) =  -154.090831414     A.U. after   10 cycles
 E2 =    -0.4828145907D+00 EUMP2 =    -0.15457364600515D+03
 SCF Done:  E(RHF) =  -154.091125414     A.U. after    9 cycles
 E2 =    -0.4825951744D+00 EUMP2 =    -0.15457372058841D+03
 SCF Done:  E(RHF) =  -154.091198192     A.U. after    8 cycles
 E2 =    -0.4825372184D+00 EUMP2 =    -0.15457373541000D+03
 SCF Done:  E(RHF) =  -154.091209460     A.U. after    8 cycles
 E2 =    -0.4825255567D+00 EUMP2 =    -0.15457373501640D+03
 Optimization completed.
    -- Stationary point found.
 Normal termination of Gaussian 16 at Thu Dec 16 11:36:43 2021.

 ----------------------------------------------------------------------
 #P Geom=AllCheck Guess=TCheck SCRF=Check GenChk RCCSD(FC)/CC-pVDZ Freq
 ----------------------------------------------------------------------

 Structure from the checkpoint file:  "CCSD_Ethanol_gaus.chk"
 -----------
 Ethanol.xyz
 -----------
 Charge =  0 Multiplicity = 1

                         Standard orientation:
 ---------------------------------------------------------------------
 Center     Atomic      Atomic             Coordinates (Angstroms)
 Number     Number       Type             X           Y           Z
 ---------------------------------------------------------------------
      1          6           0       -1.213803   -0.239120   -0.022418
      2          6           0        0.088520    0.557956    0.046562
      3          8           0        1.237856   -0.263242   -0.108594
      4          1           0       -2.092337    0.428946    0.039268
      5          1           0       -1.277469   -0.959333    0.815942
      6          1           0       -1.263894   -0.807277   -0.967873
      7          1           0        0.129619    1.136372    0.994386
      8          1           0        0.129940    1.288781   -0.780150
      9          1           0        1.222992   -0.894572    0.622316
 ---------------------------------------------------------------------

 SCF Done:  E(RHF) =  -154.091209460     A.U. after    1 cycles
 E2 =    -0.4825255566D+00 EUMP2 =    -0.15457373501624D+03
 SCF Done:  E(RHF) =  -154.091206536     A.U. after    7 cycles
 E2 =    -0.4825278309D+00 EUMP2 =    -0.15457373436711D+03
 SCF Done:  E(RHF) =  -154.091210392     A.U. after    7 cycles
 E2 =    -0.4825234077D+00 EUMP2 =    -0.15457373379976D+03
 SCF Done:  E(RHF) =  -154.091203825     A.U. after    7 cycles
 E2 =    -0.4825308157D+00 EUMP2 =    -0.15457373464093D+03
 SCF Done:  E(RHF) =  -154.091212980     A.U. after    7 cycles
 E2 =    -0.4825203910D+00 EUMP2 =    -0.15457373337114D+03
 E2 =    -0.4825264010D+00 EUMP2 =    -0.15457373422272D+03
 E2 =    -0.4825247835D+00 EUMP2 =    -0.15457373371257D+03
 E2 =    -0.4825151255D+00 EUMP2 =    -0.15457373170822D+03
 E2 =    -0.4825361349D+00 EUMP2 =    -0.15457373663766D+03
 E2 =    -0.4825177416D+00 EUMP2 =    -0.15457373366742D+03
 E2 =    -0.4825334851D+00 EUMP2 =    -0.15457373431089D+03
 E2 =    -0.4825350722D+00 EUMP2 =    -0.15457373515431D+03
 E2 =    -0.4825161422D+00 EUMP2 =    -0.15457373261142D+03
 E2 =    -0.4825559233D+00 EUMP2 =    -0.15457373584643D+03
 E2 =    -0.4824952996D+00 EUMP2 =    -0.15457373320999D+03
 E2 =    -0.4825140081D+00 EUMP2 =    -0.15457373715490D+03
 E2 =    -0.4825371033D+00 EUMP2 =    -0.15457373191107D+03
 E2 =    -0.4825222557D+00 EUMP2 =    -0.15457373410792D+03
 E2 =    -0.4825288943D+00 EUMP2 =    -0.15457373570116D+03
 E2 =    -0.4825361034D+00 EUMP2 =    -0.15457373379480D+03
 E2 =    -0.4825150337D+00 EUMP2 =    -0.15457373579213D+03
 E2 =    -0.4825392806D+00 EUMP2 =    -0.15457373253488D+03
 E2 =    -0.4825118392D+00 EUMP2 =    -0.15457373658657D+03
 E2 =    -0.4825263503D+00 EUMP2 =    -0.15457373498117D+03
 E2 =    -0.4825248001D+00 EUMP2 =    -0.15457373482795D+03
 SCF Done:  E(RHF) =  -154.091197042     A.U. after    7 cycles
 E2 =    -0.4825355540D+00 EUMP2 =    -0.15457373259652D+03
 SCF Done:  E(RHF) =  -154.091221218     A.U. after    7 cycles
 E2 =    -0.4825155756D+00 EUMP2 =    -0.15457373679350D+03
 SCF Done:  E(RHF) =  -154.091223083     A.U. after    7 cycles
 E2 =    -0.4825134618D+00 EUMP2 =    -0.15457373654435D+03
 SCF Done:  E(RHF) =  -154.091195042     A.U. after    7 cycles
 E2 =    -0.4825376612D+00 EUMP2 =    -0.15457373270340D+03
 SCF Done:  E(RHF) =  -154.091216698     A.U. after    7 cycles
 E2 =    -0.4825168988D+00 EUMP2 =    -0.15457373359640D+03
 SCF Done:  E(RHF) =  -154.091202017     A.U. after    7 cycles
 E2 =    -0.4825342738D+00 EUMP2 =    -0.15457373629076D+03
 SCF Done:  E(RHF) =  -154.091232160     A.U. after    7 cycles
 E2 =    -0.4825017563D+00 EUMP2 =    -0.15457373391649D+03
 SCF Done:  E(RHF) =  -154.091185856     A.U. after    7 cycles
 E2 =    -0.4825493881D+00 EUMP2 =    -0.15457373524463D+03
 SCF Done:  E(RHF) =  -154.091176305     A.U. after    7 cycles
 E2 =    -0.4825600458D+00 EUMP2 =    -0.15457373635095D+03
 SCF Done:  E(RHF) =  -154.091241488     A.U. after    7 cycles
 E2 =    -0.4824910869D+00 EUMP2 =    -0.15457373257454D+03

 Alpha  occ. eigenvalues --  -20.55109 -11.28039 -11.22959  -1.35292  -1.00599
 Alpha  occ. eigenvalues --   -0.84059  -0.67958  -0.61572  -0.60054  -0.53903
 Alpha  occ. eigenvalues --   -0.52049  -0.47606  -0.43627
 Alpha virt. eigenvalues --    0.17774   0.21879   0.23271   0.25199   0.26323
 Alpha virt. eigenvalues --    0.28465   0.38153   0.40029   0.59528   0.62086
 Alpha virt. eigenvalues --    0.66007   0.72404   0.75072   0.80287   0.84639

 Mulliken charges:
               1
     1  C   -0.101751
     2  C    0.110698
     3  O   -0.307283
     4  H    0.032327
     5  H    0.025483
     6  H    0.045420
     7  H    0.014975
     8  H    0.037684
     9  H    0.142448
 Sum of Mulliken charges =   0.00000

 Dipole moment (field-independent basis, Debye):
    X=             -1.0824    Y=             -0.1873    Z=              1.1369  Tot=              1.5809
 Quadrupole moment (field-independent basis, Debye-Ang):
   XX=            -22.4353   YY=            -18.8466   ZZ=            -19.2958
   XY=             -0.9923   XZ=              1.6962   YZ=             -1.3926

                      1                      2                      3
                      A                      A                      A
 Frequencies --    277.2103               327.8590               424.3918
 Red. masses --      1.0857                 1.1161                 2.6325
 Frc consts  --      0.0492                 0.0707                 0.2794
 IR Inten    --      4.3694               103.2118                20.2885

                      4                      5                      6
                      A                      A                      A
 Frequencies --    806.9419               908.5291              1081.7064
 Red. masses --      1.0810                 2.0817                 1.4864
 Frc consts  --      0.4147                 1.0124                 1.0247
 IR Inten    --      1.7878                 8.2007                21.9324

                      7                      8                      9
                      A                      A                      A
 Frequencies --   1120.4978              1154.5971              1293.4766
 Red. masses --      2.3334                 2.1331                 1.2391
 Frc consts  --      1.7260                 1.6754                 1.2215
 IR Inten    --     72.1455                17.4501                 8.5798

                     10                     11                     12
                      A                      A                      A
 Frequencies --   1392.2461              1414.3817              1448.5500
 Red. masses --      1.2442                 1.2364                 1.3240
 Frc consts  --      1.4210                 1.4573                 1.6368
 IR Inten    --      1.0939                 4.4327                56.9303

                     13                     14                     15
                      A                      A                      A
 Frequencies --   1488.7447              1495.5137              1523.3738
 Red. masses --      1.0538                 1.0507                 1.0967
 Frc consts  --      1.3761                 1.3846                 1.4995
 IR Inten    --      7.9648                 1.1472                 0.1677

                     16                     17                     18
                      A                      A                      A
 Frequencies --   3021.7196              3054.3724              3112.8198
 Red. masses --      1.0704                 1.0385                 1.0942
 Frc consts  --      5.7587                 5.7082                 6.2466
 IR Inten    --     74.2054                16.4937                10.6204

                     19                     20                     21
                      A                      A                      A
 Frequencies --   3136.8571              3155.4910              3850.5866
 Red. masses --      1.1005                 1.1031                 1.0661
 Frc consts  --      6.3799                 6.4715                 9.3130
 IR Inten    --     56.6341                30.8030                16.4269

 - Thermochemistry -
 -------------------
 Temperature   298.150 Kelvin.  Pressure   1.00000 Atm.
 Atom     1 has atomic number  6 and mass  12.00000

 Molecular mass:    46.04186 amu.
 Principal axes and moments of inertia in atomic units:
                           1         2         3
     Eigenvalues --    53.15629 196.73482 222.82408
           X            0.99975   0.01480   0.01684
           Y           -0.01385   0.99839  -0.05492
           Z           -0.01762   0.05467   0.99835
 This molecule is an asymmetric top.
 Rotational symmetry number  1.
 Rotational temperatures (Kelvin)      1.62942     0.44026     0.38871
 Rotational constants (GHZ):          33.95160     9.17347     8.09940
 Zero-point vibrational energy     212276.5 (Joules/Mol)
                                   50.73531 (Kcal/Mol)
 Warning -- explicit consideration of   3 degrees of freedom as
           vibrations may cause significant error
 Vibrational temperatures:    398.84   471.72   610.61  1161.01  1307.17
          (Kelvin)           1556.33  1612.15  1661.21  1861.02  2003.13
                             2034.98  2084.14  2141.97  2151.71  2191.80
                             4347.58  4394.56  4478.65  4513.24  4540.05
                             5540.14

 Zero-point correction=                           0.080852 (Hartree/Particle)
 Thermal correction to Energy=                    0.085052
 Thermal correction to Enthalpy=                  0.085996
 Thermal correction to Gibbs Free Energy=         0.055541
 Sum of electronic and zero-point Energies=           -154.530805
 Sum of electronic and thermal Energies=              -154.526604
 Sum of electronic and thermal Enthalpies=            -154.525660
 Sum of electronic and thermal Free Energies=         -154.556116

                     E (Thermal)             CV                S
                      KCal/Mol        Cal/Mol-Kelvin    Cal/Mol-Kelvin
 Total                   53.371             13.311             64.099
 Electronic               0.000              0.000              0.000
 Translational            0.889              2.981             37.406
 Rotational               0.889              2.981             22.371
 Vibrational             51.594              7.350              4.323
 Vibration     1          0.678              1.716              1.551
 Vibration     2          0.711              1.620              1.271
 Vibration     3          0.786              1.417              0.877

 Optimization completed.
    -- Stationary point found.
 Normal termination of Gaussian 16 at Thu Dec 16 12:20:31 2021.
