                         Program Version 5.0.1 -  RELEASE  -
|  1> ! PAL2
|  2> ! cc-pVDZ CCSD VeryTightSCF NoFrozenCore
|  3> ! Opt Freq
|  4> %elprop dipole true
|  5> end
|  6> %maxcore 4000
|  7> * xyz 0 1
|  8> O  0.906440  -0.069780  0.021830
|  9> H  1.874330  -0.048440  -0.019410
| 10> H  0.627590  0.356710  -0.802370
| 11> *
| 12>
| 13>
| 14>                          ****END OF INPUT****
 Total Charge           Charge          ....    0
 Multiplicity           Mult            ....    1
 Number of Electrons    NEL             ....   10
E(0)                                       ...    -76.025988370
E(0)                                       ...    -76.025988370
E(CORR)                                    ...     -0.214157584
E(TOT)                                     ...    -76.240145954
FINAL SINGLE POINT ENERGY       -76.240145954238
E(0)                                       ...    -76.026432630
E(0)                                       ...    -76.026432630
FINAL SINGLE POINT ENERGY       -76.240271705905
FINAL SINGLE POINT ENERGY       -76.240284300214
E(CORR)                                    ...     -0.213999518
E(TOT)                                     ...    -76.240286551
FINAL SINGLE POINT ENERGY       -76.240286550580
                    ***********************HURRAY********************

CARTESIAN COORDINATES (ANGSTROEM)
---------------------------------
  O      0.903054   -0.071981    0.026083
  H      1.865479   -0.043913   -0.028159
  H      0.639828    0.354384   -0.797874

 Multiplicity           Mult            ....    1
 Number of Electrons    NEL             ....   10
 Basis Dimension        Dim             ....   24

ORBITAL ENERGIES
----------------

  NO   OCC          E(Eh)            E(eV)
   0   2.0000     -20.552938      -559.2739
   1   2.0000      -1.334943       -36.3257
   2   2.0000      -0.691114       -18.8062
   3   2.0000      -0.569983       -15.5100
   4   2.0000      -0.493484       -13.4284
   5   0.0000       0.183888         5.0038
   6   0.0000       0.255449         6.9511
   7   0.0000       0.776619        21.1329
   8   0.0000       0.857881        23.3441
   9   0.0000       1.166044        31.7297

E(0)                                       ...    -76.026286437
E(0)                                       ...    -76.026286437
E(CORR)                                    ...     -0.214000113
E(TOT)                                     ...    -76.240286550

MULLIKEN ATOMIC CHARGES
-----------------------
   0 O :   -0.270187
   1 H :    0.135095
   2 H :    0.135092
Sum of atomic charges:   -0.0000000

LOEWDIN ATOMIC CHARGES
----------------------
   0 O :   -0.080934
   1 H :    0.040469
   2 H :    0.040465

  Mayer bond orders larger than 0.100000
B(  0-O ,  1-H ) :   0.9788 B(  0-O ,  2-H ) :   0.9788

FINAL SINGLE POINT ENERGY       -76.240286550356

DIPOLE MOMENT
-------------
                                X             Y             Z
Electronic contribution:     -0.13489      -0.08767       0.16941
Nuclear contribution   :      0.58199       0.37825      -0.73098
                        -----------------------------------------
Total Dipole Moment    :      0.44710       0.29059      -0.56156
                        -----------------------------------------
Magnitude (a.u.)       :      0.77440
Magnitude (Debye)      :      1.96837

VIBRATIONAL FREQUENCIES
-----------------------

Scaling factor for frequencies =  1.000000000 (already applied!)

   0:         0.00 cm**-1
   1:         0.00 cm**-1
   2:         0.00 cm**-1
   3:         0.00 cm**-1
   4:         0.00 cm**-1
   5:         0.00 cm**-1
   6:      1697.69 cm**-1
   7:      3849.18 cm**-1
   8:      3953.75 cm**-1

IR SPECTRUM
-----------

 Mode   freq       eps      Int      T**2         TX        TY        TZ
       cm**-1   L/(mol*cm) km/mol    a.u.
----------------------------------------------------------------------------
  6:   1697.69   0.010586   53.50  0.001946  (-0.025469 -0.016553  0.031989)
  7:   3849.18   0.000696    3.52  0.000056  ( 0.004334  0.002821 -0.005452)
  8:   3953.75   0.004084   20.64  0.000322  ( 0.014660 -0.004763  0.009205)

--------------------------
THERMOCHEMISTRY AT 298.15K
--------------------------

Temperature         ... 298.15 K
Pressure            ... 1.00 atm
Total Mass          ... 18.02 AMU

Throughout the following assumptions are being made:
  (1) The electronic state is orbitally nondegenerate
  (2) There are no thermally accessible electronically excited states
  (3) Hindered rotations indicated by low frequency modes are not
      treated as such but are treated as vibrations and this may
      cause some error
  (4) All equations used are the standard statistical mechanics
      equations for an ideal gas
  (5) All vibrations are strictly harmonic

freq.    1697.69  E(vib)   ...       0.00
freq.    3849.18  E(vib)   ...       0.00
freq.    3953.75  E(vib)   ...       0.00

------------
INNER ENERGY
------------

The inner energy is: U= E(el) + E(ZPE) + E(vib) + E(rot) + E(trans)
    E(el)   - is the total energy from the electronic structure calculation
              = E(kin-el) + E(nuc-el) + E(el-el) + E(nuc-nuc)
    E(ZPE)  - the the zero temperature vibrational energy from the frequency calculation
    E(vib)  - the the finite temperature correction to E(ZPE) due to population
              of excited vibrational states
    E(rot)  - is the rotational thermal energy
    E(trans)- is the translational thermal energy

Summary of contributions to the inner energy U:
Electronic energy                ...    -76.24028655 Eh
Zero point energy                ...      0.02164400 Eh      13.58 kcal/mol
Thermal vibrational correction   ...      0.00000214 Eh       0.00 kcal/mol
Thermal rotational correction    ...      0.00141627 Eh       0.89 kcal/mol
Thermal translational correction ...      0.00141627 Eh       0.89 kcal/mol
-----------------------------------------------------------------------
Total thermal energy                    -76.21580787 Eh

Summary of corrections to the electronic energy:
(perhaps to be used in another calculation)
Total thermal correction                  0.00283468 Eh       1.78 kcal/mol
Non-thermal (ZPE) correction              0.02164400 Eh      13.58 kcal/mol
-----------------------------------------------------------------------
Total correction                          0.02447868 Eh      15.36 kcal/mol

--------
ENTHALPY
--------

The enthalpy is H = U + kB*T
                kB is Boltzmann's constant
Total free energy                 ...    -76.21580787 Eh
Thermal Enthalpy correction       ...      0.00094421 Eh       0.59 kcal/mol
-----------------------------------------------------------------------
Total Enthalpy                    ...    -76.21486366 Eh

Note: Rotational entropy computed according to Herzberg
Infrared and Raman Spectra, Chapter V,1, Van Nostrand Reinhold, 1945
Point Group:  C2v, Symmetry Number:   2
Rotational constants in cm-1:    25.679673    14.843730     9.406469

Vibrational entropy computed according to the QRRHO of S. Grimme
Chem.Eur.J. 2012 18 9955

-------
ENTROPY
-------

The entropy contributions are T*S = T*(S(el)+S(vib)+S(rot)+S(trans))
     S(el)   - electronic entropy
     S(vib)  - vibrational entropy
     S(rot)  - rotational entropy
     S(trans)- translational entropy
The entropies will be listed as multiplied by the temperature to get
units of energy

Electronic entropy                ...      0.00000000 Eh      0.00 kcal/mol
Vibrational entropy               ...      0.00000240 Eh      0.00 kcal/mol
Rotational entropy                ...      0.00499245 Eh      3.13 kcal/mol
Translational entropy             ...      0.01644380 Eh     10.32 kcal/mol
-----------------------------------------------------------------------
Final entropy term                ...      0.02143865 Eh     13.45 kcal/mol

In case the symmetry of your molecule has not been determined correctly
or in case you have a reason to use a different symmetry number we print
out the resulting rotational entropy values for sn=1,12 :
 --------------------------------------------------------
|  sn= 1 | S(rot)=       0.00564690 Eh      3.54 kcal/mol|
|  sn= 2 | S(rot)=       0.00499245 Eh      3.13 kcal/mol|
|  sn= 3 | S(rot)=       0.00460961 Eh      2.89 kcal/mol|
|  sn= 4 | S(rot)=       0.00433799 Eh      2.72 kcal/mol|
|  sn= 5 | S(rot)=       0.00412730 Eh      2.59 kcal/mol|
|  sn= 6 | S(rot)=       0.00395516 Eh      2.48 kcal/mol|
|  sn= 7 | S(rot)=       0.00380961 Eh      2.39 kcal/mol|
|  sn= 8 | S(rot)=       0.00368353 Eh      2.31 kcal/mol|
|  sn= 9 | S(rot)=       0.00357233 Eh      2.24 kcal/mol|
|  sn=10 | S(rot)=       0.00347285 Eh      2.18 kcal/mol|
|  sn=11 | S(rot)=       0.00338286 Eh      2.12 kcal/mol|
|  sn=12 | S(rot)=       0.00330070 Eh      2.07 kcal/mol|
 --------------------------------------------------------

-------------------
GIBBS FREE ENERGY
-------------------

The Gibbs free energy is G = H - T*S

Total enthalpy                    ...    -76.21486366 Eh
Total entropy correction          ...     -0.02143865 Eh    -13.45 kcal/mol
-----------------------------------------------------------------------
Final Gibbs free energy         ...    -76.23630231 Eh

For completeness - the Gibbs free energy minus the electronic energy
G-E(el)                           ...      0.00398424 Eh      2.50 kcal/mol

                             ****ORCA TERMINATED NORMALLY****
TOTAL RUN TIME: 0 days 0 hours 26 minutes 33 seconds 135 msec
