 Gaussian 16, Revision A.03,
 Gaussian 16:  ES64L-G16RevA.03 25-Dec-2016

 -------------------------------------------------
 #p opt freq b3lyp/cc-pvdz geom=connectivity polar
 -------------------------------------------------

 -----------
 Methane.xyz
 -----------
 Symbolic Z-matrix:
 Charge =  0 Multiplicity = 1

 SCF Done:  E(RB3LYP) =  -40.5161979256     A.U. after    8 cycles
 SCF Done:  E(RB3LYP) =  -40.5163487497     A.U. after    6 cycles
 Optimization completed.
    -- Stationary point found.
 Normal termination of Gaussian 16 at Thu Dec 16 11:32:20 2021.

 -------------------------------------------------------------------
 #P Geom=AllCheck Guess=TCheck SCRF=Check GenChk RB3LYP/CC-pVDZ Freq
 -------------------------------------------------------------------

 Structure from the checkpoint file:  "DFT_Methane_gaus.chk"
 -----------
 Methane.xyz
 -----------
 Charge =  0 Multiplicity = 1

                         Standard orientation:
 ---------------------------------------------------------------------
 Center     Atomic      Atomic             Coordinates (Angstroms)
 Number     Number       Type             X           Y           Z
 ---------------------------------------------------------------------
      1          6           0        0.000000   -0.000000   -0.000000
      2          1           0       -0.585930    0.115518    0.923970
      3          1           0       -0.357058   -0.881608   -0.552861
      4          1           0        1.062436   -0.131646    0.253535
      5          1           0       -0.119450    0.897737   -0.624644
 ---------------------------------------------------------------------

 SCF Done:  E(RB3LYP) =  -40.5163487497     A.U. after    1 cycles

 The electronic state is 1-A.
 Alpha  occ. eigenvalues --  -10.17474  -0.69021  -0.38842  -0.38842  -0.38842
 Alpha virt. eigenvalues --    0.07296   0.14280   0.14280   0.14280   0.41372
 Alpha virt. eigenvalues --    0.41372   0.41372   0.64983   0.64983   0.64983
 Alpha virt. eigenvalues --    0.67678   0.90081   0.90081   1.04146   1.41466

 Mulliken charges:
               1
     1  C   -0.127772
     2  H    0.031943
     3  H    0.031943
     4  H    0.031943
     5  H    0.031943
 Sum of Mulliken charges =   0.00000

 Dipole moment (field-independent basis, Debye):
    X=             -0.0000    Y=              0.0000    Z=              0.0000  Tot=              0.0000
 Quadrupole moment (field-independent basis, Debye-Ang):
   XX=             -8.3289   YY=             -8.3289   ZZ=             -8.3289
   XY=             -0.0000   XZ=              0.0000   YZ=             -0.0000

  Exact polarizability:  13.414  -0.000  13.414  -0.000   0.000  13.414
 Approx polarizability:  16.319   0.000  16.319  -0.000   0.000  16.319

                      1                      2                      3
                      A                      A                      A
 Frequencies --   1310.4128              1310.4274              1310.4554
 Red. masses --      1.1791                 1.1791                 1.1791
 Frc consts  --      1.1929                 1.1929                 1.1930
 IR Inten    --     11.9699                11.9698                11.9696

                      4                      5                      6
                      A                      A                      A
 Frequencies --   1531.2368              1531.2599              3025.0452
 Red. masses --      1.0078                 1.0078                 1.0078
 Frc consts  --      1.3923                 1.3923                 5.4337
 IR Inten    --      0.0000                 0.0000                 0.0000

                      7                      8                      9
                      A                      A                      A
 Frequencies --   3146.4526              3146.4865              3146.4954
 Red. masses --      1.1016                 1.1016                 1.1016
 Frc consts  --      6.4255                 6.4256                 6.4257
 IR Inten    --     20.9728                20.9731                20.9732

 - Thermochemistry -
 -------------------
 Temperature   298.150 Kelvin.  Pressure   1.00000 Atm.
 Atom     1 has atomic number  6 and mass  12.00000

 Molecular mass:    16.03130 amu.
 Principal axes and moments of inertia in atomic units:
                           1         2         3
     Eigenvalues --    11.61643  11.61644  11.61645
           X            1.00000   0.00000   0.00000
           Y           -0.00000   1.00000  -0.00000
           Z           -0.00000   0.00000   1.00000
 This molecule is an asymmetric top.
 Rotational symmetry number  1.
 Rotational temperatures (Kelvin)      7.45616     7.45615     7.45614
 Rotational constants (GHZ):         155.36108   155.36095   155.36077
 Zero-point vibrational energy     116386.3 (Joules/Mol)
                                   27.81700 (Kcal/Mol)
 Vibrational temperatures:   1885.39  1885.41  1885.45  2203.11  2203.14
          (Kelvin)           4352.37  4527.04  4527.09  4527.11

 Zero-point correction=                           0.044329 (Hartree/Particle)
 Thermal correction to Energy=                    0.047203
 Thermal correction to Enthalpy=                  0.048147
 Thermal correction to Gibbs Free Energy=         0.024640
 Sum of electronic and zero-point Energies=            -40.472020
 Sum of electronic and thermal Energies=               -40.469146
 Sum of electronic and thermal Enthalpies=             -40.468202
 Sum of electronic and thermal Free Energies=          -40.491708

                     E (Thermal)             CV                S
                      KCal/Mol        Cal/Mol-Kelvin    Cal/Mol-Kelvin
 Total                   29.620              6.525             49.473
 Electronic               0.000              0.000              0.000
 Translational            0.889              2.981             34.261
 Rotational               0.889              2.981             15.113
 Vibrational             27.843              0.564              0.099

 Optimization completed.
    -- Stationary point found.
 Normal termination of Gaussian 16 at Thu Dec 16 11:32:31 2021.
