 Gaussian 16, Revision A.03,
 Gaussian 16:  ES64L-G16RevA.03 25-Dec-2016

 -----------------------------------
 # td=(nstates=30) cam-b3lyp/cc-pVDZ
 -----------------------------------

 ---------
 Water.xyz
 ---------
 Symbolic Z-matrix:
 Charge =  0 Multiplicity = 1

                         Standard orientation:
 ---------------------------------------------------------------------
 Center     Atomic      Atomic             Coordinates (Angstroms)
 Number     Number       Type             X           Y           Z
 ---------------------------------------------------------------------
      1          8           0       -0.000000    0.119345    0.000000
      2          1           0        0.763468   -0.477383    0.000000
      3          1           0       -0.763468   -0.477374   -0.000000
 ---------------------------------------------------------------------

 SCF Done:  E(RCAM-B3LYP) =  -76.3919340806     A.U. after   10 cycles

 Excitation energies and oscillator strengths:

 Excited State   1:      Singlet-A"     7.5871 eV  163.42 nm  f=0.0221  <S**2>=0.000
       5 ->  6         0.70670
 This state for optimization and/or second-order correction.
 Total Energy, E(TD-HF/TD-DFT) =  -76.1131149106
 Copying the excited state density for this state as the 1-particle RhoCI density.

 Excited State   2:      Singlet-A"     9.4994 eV  130.52 nm  f=0.0000  <S**2>=0.000
       5 ->  7         0.70492

 Excited State   3:      Singlet-A'     9.9693 eV  124.37 nm  f=0.0807  <S**2>=0.000
       4 ->  6         0.70354

 Excited State   4:      Singlet-A'    11.9909 eV  103.40 nm  f=0.0567  <S**2>=0.000
       4 ->  7         0.70225

 Excited State   5:      Singlet-A'    13.8586 eV   89.46 nm  f=0.2884  <S**2>=0.000
       3 ->  6         0.70270

 Excited State   6:      Singlet-A'    16.8812 eV   73.45 nm  f=0.1250  <S**2>=0.000
       3 ->  7         0.69619

 Excited State   7:      Singlet-A"    20.7903 eV   59.64 nm  f=0.0000  <S**2>=0.000
       5 ->  8         0.70521

 Excited State   8:      Singlet-A"    22.5960 eV   54.87 nm  f=0.0644  <S**2>=0.000
       5 ->  9         0.70449

 Excited State   9:      Singlet-A'    24.0118 eV   51.63 nm  f=0.1237  <S**2>=0.000
       3 ->  9         0.14663
       4 ->  8         0.68739

 Excited State  10:      Singlet-A'    24.8419 eV   49.91 nm  f=0.0032  <S**2>=0.000
       2 ->  6        -0.12429
       3 ->  8         0.10276
       4 ->  9         0.68310

 Excited State  11:      Singlet-A'    27.4988 eV   45.09 nm  f=0.0035  <S**2>=0.000
       2 ->  6         0.66830
       3 ->  8         0.13344
       5 -> 11         0.16049

 Excited State  12:      Singlet-A'    28.4577 eV   43.57 nm  f=0.2181  <S**2>=0.000
       3 ->  8         0.66433
       5 -> 11        -0.17697

 Excited State  13:      Singlet-A'    29.3859 eV   42.19 nm  f=0.0516  <S**2>=0.000
       2 ->  7         0.70187

 Excited State  14:      Singlet-A"    29.8117 eV   41.59 nm  f=0.0052  <S**2>=0.000
       5 -> 10         0.70168

 Excited State  15:      Singlet-A'    29.9328 eV   41.42 nm  f=0.2756  <S**2>=0.000
       3 ->  9         0.67844
       4 ->  8        -0.14021

 Excited State  16:      Singlet-A'    31.2064 eV   39.73 nm  f=0.0137  <S**2>=0.000
       2 ->  6         0.10405
       4 -> 10         0.49274
       5 -> 11        -0.48502

 Excited State  17:      Singlet-A"    32.1662 eV   38.54 nm  f=0.0002  <S**2>=0.000
       4 -> 11         0.70350

 Excited State  18:      Singlet-A"    32.2973 eV   38.39 nm  f=0.0000  <S**2>=0.000
       5 -> 12         0.70641

 Excited State  19:      Singlet-A'    34.5069 eV   35.93 nm  f=0.0660  <S**2>=0.000
       4 -> 12         0.69825

 Excited State  20:      Singlet-A'    36.1257 eV   34.32 nm  f=0.0775  <S**2>=0.000
       3 ->  8        -0.11385
       3 -> 12         0.43955
       4 -> 10        -0.40851
       5 -> 11        -0.31778

 Excited State  21:      Singlet-A"    36.1340 eV   34.31 nm  f=0.0000  <S**2>=0.000
       3 -> 11         0.70697

 Excited State  22:      Singlet-A'    36.2559 eV   34.20 nm  f=0.1595  <S**2>=0.000
       3 -> 10         0.68160
       5 -> 14        -0.14150

 Excited State  23:      Singlet-A"    38.2879 eV   32.38 nm  f=0.0024  <S**2>=0.000
       5 -> 13         0.70576

 Excited State  24:      Singlet-A'    40.2585 eV   30.80 nm  f=0.3729  <S**2>=0.000
       2 ->  8        -0.33411
       3 -> 13         0.11877
       5 -> 14         0.59810

 Excited State  25:      Singlet-A'    40.8504 eV   30.35 nm  f=0.1503  <S**2>=0.000
       2 ->  9         0.31860
       3 -> 12        -0.33328
       4 -> 10        -0.14949
       4 -> 13         0.46786
       5 -> 11        -0.13064
       5 -> 15         0.12027

 Excited State  26:      Singlet-A'    41.1278 eV   30.15 nm  f=0.2594  <S**2>=0.000
       2 ->  8         0.62000
       5 -> 14         0.31100

 Excited State  27:      Singlet-A"    41.3312 eV   30.00 nm  f=0.0000  <S**2>=0.000
       4 -> 14         0.70696

 Excited State  28:      Singlet-A'    41.7980 eV   29.66 nm  f=0.3525  <S**2>=0.000
       2 ->  9         0.48185
       3 -> 12        -0.18227
       4 -> 13        -0.45236
       5 -> 15        -0.15299

 Excited State  29:      Singlet-A'    45.0630 eV   27.51 nm  f=0.3618  <S**2>=0.000
       3 -> 13         0.69277
       5 -> 14        -0.11192

 Excited State  30:      Singlet-A'    45.2674 eV   27.39 nm  f=0.3337  <S**2>=0.000
       2 ->  9         0.27242
       3 -> 12         0.21981
       4 -> 10         0.15628
       4 -> 16        -0.13497
       5 -> 11         0.16825
       5 -> 15         0.53347

 The electronic state is 1-A'.
 Alpha  occ. eigenvalues --  -19.19614  -1.06885  -0.57620  -0.43299  -0.35684
 Alpha virt. eigenvalues --    0.09752   0.17277   0.61745   0.67288   0.97005
 Alpha virt. eigenvalues --    0.98766   1.05937   1.26967   1.30204   1.49309
 Alpha virt. eigenvalues --    1.66204   1.73409   2.16541   2.20357   2.99244

 Mulliken charges:
               1
     1  O   -0.271466
     2  H    0.135734
     3  H    0.135732
 Sum of Mulliken charges =   0.00000

 Dipole moment (field-independent basis, Debye):
    X=             -0.0000    Y=             -1.9568    Z=             -0.0000  Tot=              1.9568
 Quadrupole moment (field-independent basis, Debye-Ang):
   XX=             -4.2724   YY=             -5.9144   ZZ=             -7.0179
   XY=             -0.0000   XZ=              0.0000   YZ=             -0.0000

 Normal termination of Gaussian 16 at Mon Mar  7 19:37:18 2022.
