                         Program Version 5.0.1 -  RELEASE  -
|  1> ! PAL2
|  2> ! RKS cc-pVDZ B3LYP TightOpt
|  3> ! Opt Freq
|  4> %method
|  5> end
|  6> %maxcore 4000
|  7> * xyz 0 1
|  8> C  1.018250  0.093150  0.031470
|  9> H  2.110450  0.093150  0.031470
| 10> H  0.654190  -0.602800  0.790430
| 11> H  0.654180  -0.216150  -0.950710
| 12> H  0.654180  1.098400  0.254700
| 13> *
| 14>
| 15>
| 16>                          ****END OF INPUT****
 Total Charge           Charge          ....    0
 Multiplicity           Mult            ....    1
 Number of Electrons    NEL             ....   10
FINAL SINGLE POINT ENERGY       -40.480305441064
FINAL SINGLE POINT ENERGY       -40.480469915027
                    ***********************HURRAY********************

CARTESIAN COORDINATES (ANGSTROEM)
---------------------------------
  C      1.018227    0.093158    0.031442
  H      2.118501    0.093136    0.031498
  H      0.651536   -0.607936    0.796046
  H      0.651489   -0.218432   -0.957977
  H      0.651497    1.105824    0.256352

 Multiplicity           Mult            ....    1
 Number of Electrons    NEL             ....   10
 Basis Dimension        Dim             ....   34

ORBITAL ENERGIES
----------------

  NO   OCC          E(Eh)            E(eV)
   0   2.0000     -10.171132      -276.7706
   1   2.0000      -0.686746       -18.6873
   2   2.0000      -0.385010       -10.4766
   3   2.0000      -0.384991       -10.4761
   4   2.0000      -0.384972       -10.4756
   5   0.0000       0.075845         2.0638
   6   0.0000       0.145624         3.9626
   7   0.0000       0.145632         3.9629
   8   0.0000       0.145633         3.9629
   9   0.0000       0.416931        11.3453

MULLIKEN ATOMIC CHARGES
-----------------------
   0 C :   -0.125756
   1 H :    0.031448
   2 H :    0.031459
   3 H :    0.031427
   4 H :    0.031422
Sum of atomic charges:   -0.0000000

LOEWDIN ATOMIC CHARGES
----------------------
   0 C :   -0.121378
   1 H :    0.030347
   2 H :    0.030347
   3 H :    0.030342
   4 H :    0.030342

  Mayer bond orders larger than 0.100000
B(  0-C ,  1-H ) :   0.9978 B(  0-C ,  2-H ) :   0.9978 B(  0-C ,  3-H ) :   0.9979
B(  0-C ,  4-H ) :   0.9979

FINAL SINGLE POINT ENERGY       -40.480469914439

DIPOLE MOMENT
-------------
                                X             Y             Z
Electronic contribution:     -0.00010       0.00005      -0.00016
Nuclear contribution   :      0.00008      -0.00003       0.00011
                        -----------------------------------------
Total Dipole Moment    :     -0.00002       0.00002      -0.00006
                        -----------------------------------------
Magnitude (a.u.)       :      0.00006
Magnitude (Debye)      :      0.00016

VIBRATIONAL FREQUENCIES
-----------------------

Scaling factor for frequencies =  1.000000000  (already applied!)

   0:         0.00 cm**-1
   1:         0.00 cm**-1
   2:         0.00 cm**-1
   3:         0.00 cm**-1
   4:         0.00 cm**-1
   5:         0.00 cm**-1
   6:      1308.68 cm**-1
   7:      1308.76 cm**-1
   8:      1308.91 cm**-1
   9:      1529.84 cm**-1
  10:      1529.92 cm**-1
  11:      3024.22 cm**-1
  12:      3144.85 cm**-1
  13:      3145.14 cm**-1
  14:      3145.61 cm**-1

IR SPECTRUM
-----------

 Mode   freq       eps      Int      T**2         TX        TY        TZ
       cm**-1   L/(mol*cm) km/mol    a.u.
----------------------------------------------------------------------------
  6:   1308.68   0.002354   11.90  0.000561  ( 0.002793  0.014217  0.018749)
  7:   1308.76   0.002343   11.84  0.000559  ( 0.006393 -0.018588  0.013130)
  8:   1308.91   0.002342   11.84  0.000558  ( 0.022587  0.003480 -0.006011)
  9:   1529.84   0.000000    0.00  0.000000  ( 0.000004  0.000016 -0.000006)
 10:   1529.92   0.000000    0.00  0.000000  ( 0.000006  0.000009  0.000005)
 11:   3024.22   0.000000    0.00  0.000000  ( 0.000040 -0.000014  0.000012)
 12:   3144.85   0.004182   21.13  0.000415  (-0.018316 -0.006355  0.006251)
 13:   3145.14   0.004185   21.15  0.000415  ( 0.008875 -0.014746  0.010908)
 14:   3145.61   0.004184   21.15  0.000415  (-0.001139 -0.012538 -0.016019)

--------------------------
THERMOCHEMISTRY AT 298.15K
--------------------------

Temperature         ... 298.15 K
Pressure            ... 1.00 atm
Total Mass          ... 16.04 AMU

Throughout the following assumptions are being made:
  (1) The electronic state is orbitally nondegenerate
  (2) There are no thermally accessible electronically excited states
  (3) Hindered rotations indicated by low frequency modes are not
      treated as such but are treated as vibrations and this may
      cause some error
  (4) All equations used are the standard statistical mechanics
      equations for an ideal gas
  (5) All vibrations are strictly harmonic

freq.    1308.68  E(vib)   ...       0.01
freq.    1308.76  E(vib)   ...       0.01
freq.    1308.91  E(vib)   ...       0.01
freq.    1529.84  E(vib)   ...       0.00
freq.    1529.92  E(vib)   ...       0.00
freq.    3024.22  E(vib)   ...       0.00
freq.    3144.85  E(vib)   ...       0.00
freq.    3145.14  E(vib)   ...       0.00
freq.    3145.61  E(vib)   ...       0.00

------------
INNER ENERGY
------------

The inner energy is: U= E(el) + E(ZPE) + E(vib) + E(rot) + E(trans)
    E(el)   - is the total energy from the electronic structure calculation
              = E(kin-el) + E(nuc-el) + E(el-el) + E(nuc-nuc)
    E(ZPE)  - the the zero temperature vibrational energy from the frequency calculation
    E(vib)  - the the finite temperature correction to E(ZPE) due to population
              of excited vibrational states
    E(rot)  - is the rotational thermal energy
    E(trans)- is the translational thermal energy

Summary of contributions to the inner energy U:
Electronic energy                ...    -40.48046991 Eh
Zero point energy                ...      0.04430111 Eh      27.80 kcal/mol
Thermal vibrational correction   ...      0.00004110 Eh       0.03 kcal/mol
Thermal rotational correction    ...      0.00141627 Eh       0.89 kcal/mol
Thermal translational correction ...      0.00141627 Eh       0.89 kcal/mol
-----------------------------------------------------------------------
Total thermal energy                    -40.43329517 Eh

Summary of corrections to the electronic energy:
(perhaps to be used in another calculation)
Total thermal correction                  0.00287364 Eh       1.80 kcal/mol
Non-thermal (ZPE) correction              0.04430111 Eh      27.80 kcal/mol
-----------------------------------------------------------------------
Total correction                          0.04717475 Eh      29.60 kcal/mol

--------
ENTHALPY
--------

The enthalpy is H = U + kB*T
                kB is Boltzmann's constant
Total free energy                 ...    -40.43329517 Eh
Thermal Enthalpy correction       ...      0.00094421 Eh       0.59 kcal/mol
-----------------------------------------------------------------------
Total Enthalpy                    ...    -40.43235096 Eh

Note: Rotational entropy computed according to Herzberg
Infrared and Raman Spectra, Chapter V,1, Van Nostrand Reinhold, 1945
Point Group:  Td, Symmetry Number:  12
Rotational constants in cm-1:     5.180670     5.180545     5.180373

Vibrational entropy computed according to the QRRHO of S. Grimme
Chem.Eur.J. 2012 18 9955

-------
ENTROPY
-------

The entropy contributions are T*S = T*(S(el)+S(vib)+S(rot)+S(trans))
     S(el)   - electronic entropy
     S(vib)  - vibrational entropy
     S(rot)  - rotational entropy
     S(trans)- translational entropy
The entropies will be listed as multiplied by the temperature to get
units of energy

Electronic entropy                ...      0.00000000 Eh      0.00 kcal/mol
Vibrational entropy               ...      0.00004741 Eh      0.03 kcal/mol
Rotational entropy                ...      0.00483497 Eh      3.03 kcal/mol
Translational entropy             ...      0.01627961 Eh     10.22 kcal/mol
-----------------------------------------------------------------------
Final entropy term                ...      0.02116199 Eh     13.28 kcal/mol

In case the symmetry of your molecule has not been determined correctly
or in case you have a reason to use a different symmetry number we print
out the resulting rotational entropy values for sn=1,12 :
 --------------------------------------------------------
|  sn= 1 | S(rot)=       0.00718118 Eh      4.51 kcal/mol|
|  sn= 2 | S(rot)=       0.00652672 Eh      4.10 kcal/mol|
|  sn= 3 | S(rot)=       0.00614389 Eh      3.86 kcal/mol|
|  sn= 4 | S(rot)=       0.00587226 Eh      3.68 kcal/mol|
|  sn= 5 | S(rot)=       0.00566157 Eh      3.55 kcal/mol|
|  sn= 6 | S(rot)=       0.00548943 Eh      3.44 kcal/mol|
|  sn= 7 | S(rot)=       0.00534388 Eh      3.35 kcal/mol|
|  sn= 8 | S(rot)=       0.00521781 Eh      3.27 kcal/mol|
|  sn= 9 | S(rot)=       0.00510660 Eh      3.20 kcal/mol|
|  sn=10 | S(rot)=       0.00500712 Eh      3.14 kcal/mol|
|  sn=11 | S(rot)=       0.00491713 Eh      3.09 kcal/mol|
|  sn=12 | S(rot)=       0.00483497 Eh      3.03 kcal/mol|
 --------------------------------------------------------

-------------------
GIBBS FREE ENERGY
-------------------

The Gibbs free energy is G = H - T*S

Total enthalpy                    ...    -40.43235096 Eh
Total entropy correction          ...     -0.02116199 Eh    -13.28 kcal/mol
-----------------------------------------------------------------------
Final Gibbs free energy         ...    -40.45351295 Eh

For completeness - the Gibbs free energy minus the electronic energy
G-E(el)                           ...      0.02695696 Eh     16.92 kcal/mol

                             ****ORCA TERMINATED NORMALLY****
TOTAL RUN TIME: 0 days 0 hours 0 minutes 19 seconds 174 msec
