 Gaussian 16, Revision A.03,
 Gaussian 16:  ES64L-G16RevA.03 25-Dec-2016

 -----------------------------------
 # td=(nstates=30) cam-b3lyp/cc-pVDZ
 -----------------------------------

 -----------
 Methane.xyz
 -----------
 Symbolic Z-matrix:
 Charge =  0 Multiplicity = 1

                         Standard orientation:
 ---------------------------------------------------------------------
 Center     Atomic      Atomic             Coordinates (Angstroms)
 Number     Number       Type             X           Y           Z
 ---------------------------------------------------------------------
      1          6           0        0.000001   -0.000000   -0.000001
      2          1           0        0.238897    1.049174    0.187251
      3          1           0       -0.103162   -0.525400    0.951954
      4          1           0        0.802074   -0.457527   -0.583300
      5          1           0       -0.937812   -0.066247   -0.555900
 ---------------------------------------------------------------------

 SCF Done:  E(RCAM-B3LYP) =  -40.4822080091     A.U. after    9 cycles

 Excitation energies and oscillator strengths:

 Excited State   1:      Singlet-A     11.6654 eV  106.28 nm  f=0.1889  <S**2>=0.000
       5 ->  6         0.70654
 This state for optimization and/or second-order correction.
 Total Energy, E(TD-HF/TD-DFT) =  -40.0535141783
 Copying the excited state density for this state as the 1-particle RhoCI density.

 Excited State   2:      Singlet-A     11.6654 eV  106.28 nm  f=0.1889  <S**2>=0.000
       4 ->  6         0.70590

 Excited State   3:      Singlet-A     11.6654 eV  106.28 nm  f=0.1889  <S**2>=0.000
       3 ->  6         0.70625

 Excited State   4:      Singlet-A     13.2456 eV   93.60 nm  f=0.0000  <S**2>=0.000
       4 ->  7         0.36935
       4 ->  8        -0.32889
       5 ->  7         0.32309
       5 ->  8         0.36138
       5 ->  9         0.11608

 Excited State   5:      Singlet-A     13.2456 eV   93.60 nm  f=0.0000  <S**2>=0.000
       3 ->  7        -0.40810
       3 ->  8         0.27806
       5 ->  9         0.47968

 Excited State   6:      Singlet-A     13.2456 eV   93.60 nm  f=0.0000  <S**2>=0.000
       3 ->  7         0.25580
       3 ->  8         0.39088
       3 ->  9         0.17330
       4 ->  7        -0.10880
       4 ->  8        -0.13627
       4 ->  9         0.46185

 Excited State   7:      Singlet-A     13.4293 eV   92.32 nm  f=0.0000  <S**2>=0.000
       3 ->  7         0.14251
       3 ->  8        -0.11695
       3 ->  9         0.10019
       4 ->  7        -0.31722
       4 ->  8         0.32566
       5 ->  7         0.18355
       5 ->  8         0.31834
       5 ->  9         0.33267

 Excited State   8:      Singlet-A     13.4293 eV   92.32 nm  f=0.0000  <S**2>=0.000
       3 ->  7         0.38929
       3 ->  8         0.24844
       3 ->  9        -0.27319
       4 ->  9        -0.35050
       5 ->  7         0.16058
       5 ->  8        -0.21963
       5 ->  9         0.11056

 Excited State   9:      Singlet-A     13.7193 eV   90.37 nm  f=0.4480  <S**2>=0.000
       4 ->  7         0.24790
       4 ->  8         0.38011
       4 ->  9         0.20547
       5 ->  7         0.41567
       5 ->  8        -0.24546

 Excited State  10:      Singlet-A     13.7193 eV   90.37 nm  f=0.4480  <S**2>=0.000
       3 ->  7        -0.25829
       3 ->  8         0.34665
       3 ->  9        -0.14645
       4 ->  7        -0.24567
       5 ->  7         0.20736
       5 ->  8         0.25253
       5 ->  9        -0.33166

 Excited State  11:      Singlet-A     13.7193 eV   90.37 nm  f=0.4480  <S**2>=0.000
       3 ->  8         0.23774
       3 ->  9         0.46230
       4 ->  7         0.23951
       4 ->  8         0.19133
       4 ->  9        -0.28803
       5 ->  7        -0.13370
       5 ->  8         0.10687
       5 ->  9        -0.10936

 Excited State  12:      Singlet-A     15.0279 eV   82.50 nm  f=0.0000  <S**2>=0.000
       2 ->  6        -0.10277
       3 ->  8        -0.10112
       3 ->  9         0.37003
       4 ->  7        -0.24623
       4 ->  8        -0.27623
       4 ->  9        -0.13950
       5 ->  7         0.29412
       5 ->  8        -0.26431

 Excited State  13:      Singlet-A     20.2542 eV   61.21 nm  f=0.0000  <S**2>=0.000
       3 -> 10        -0.14498
       4 -> 10         0.36113
       4 -> 11         0.30242
       5 -> 10        -0.31033
       5 -> 11         0.37382
       5 -> 12        -0.11091

 Excited State  14:      Singlet-A     20.2542 eV   61.21 nm  f=0.0000  <S**2>=0.000
       3 -> 10        -0.42720
       3 -> 11        -0.19978
       4 -> 10        -0.15654
       4 -> 12         0.12632
       5 -> 11         0.12058
       5 -> 12         0.46870

 Excited State  15:      Singlet-A     20.2543 eV   61.21 nm  f=0.0000  <S**2>=0.000
       3 -> 10        -0.18088
       3 -> 11         0.37889
       3 -> 12        -0.27007
       4 -> 10        -0.10323
       4 -> 11         0.24264
       4 -> 12         0.40478
       5 -> 12        -0.11163

 Excited State  16:      Singlet-A     20.3680 eV   60.87 nm  f=0.0000  <S**2>=0.000
       3 -> 10        -0.10000
       3 -> 11        -0.18276
       4 -> 10         0.35538
       4 -> 11         0.28627
       5 -> 10         0.36319
       5 -> 11        -0.33047

 Excited State  17:      Singlet-A     20.3681 eV   60.87 nm  f=0.0000  <S**2>=0.000
       3 -> 12         0.53253
       4 -> 10        -0.16911
       4 -> 11         0.24012
       4 -> 12         0.19432
       5 -> 10        -0.18943
       5 -> 11        -0.21322

 Excited State  18:      Singlet-A     20.4909 eV   60.51 nm  f=0.0000  <S**2>=0.000
       2 ->  6         0.65352
       3 -> 12         0.12289
       5 -> 10         0.11417

 Excited State  19:      Singlet-A     21.6749 eV   57.20 nm  f=0.3139  <S**2>=0.000
       2 ->  7        -0.22015
       2 ->  8        -0.11705
       2 ->  9         0.18634
       4 -> 10        -0.28640
       4 -> 11         0.28323
       5 -> 10         0.31609
       5 -> 11         0.29541

 Excited State  20:      Singlet-A     21.6750 eV   57.20 nm  f=0.3139  <S**2>=0.000
       2 ->  7         0.20730
       2 ->  8        -0.19878
       2 ->  9         0.12005
       3 -> 10         0.35806
       3 -> 11         0.18977
       4 -> 10         0.10101
       4 -> 11         0.14488
       5 -> 12         0.41663

 Excited State  21:      Singlet-A     21.6750 eV   57.20 nm  f=0.3139  <S**2>=0.000
       2 ->  8         0.20901
       2 ->  9         0.21854
       3 -> 10         0.22269
       3 -> 11        -0.36366
       3 -> 12        -0.12749
       4 -> 12         0.40518

 Excited State  22:      Singlet-A     22.0099 eV   56.33 nm  f=0.0000  <S**2>=0.000
       2 ->  6        -0.21827
       3 -> 11         0.18071
       3 -> 12         0.31009
       4 -> 10         0.21374
       4 -> 11        -0.23055
       4 -> 12         0.19269
       5 -> 10         0.28830
       5 -> 11         0.22394

 Excited State  23:      Singlet-A     22.3463 eV   55.48 nm  f=0.0352  <S**2>=0.000
       2 ->  7         0.62629
       4 -> 10        -0.13341
       5 -> 10         0.12020
       5 -> 12        -0.15710

 Excited State  24:      Singlet-A     22.3463 eV   55.48 nm  f=0.0352  <S**2>=0.000
       2 ->  8         0.62556
       3 -> 11         0.14127
       4 -> 11         0.13496
       4 -> 12        -0.12025
       5 -> 12         0.12788

 Excited State  25:      Singlet-A     22.3463 eV   55.48 nm  f=0.0352  <S**2>=0.000
       2 ->  9         0.62559
       3 -> 10        -0.17023
       3 -> 11         0.12255
       4 -> 12        -0.14187
       5 -> 11        -0.10615

 Excited State  26:      Singlet-A     26.6808 eV   46.47 nm  f=0.0000  <S**2>=0.000
       4 -> 13         0.38904
       4 -> 14        -0.29670
       5 -> 13         0.29969
       5 -> 14         0.39035

 Excited State  27:      Singlet-A     26.6809 eV   46.47 nm  f=0.0000  <S**2>=0.000
       3 -> 13        -0.44652
       3 -> 14         0.19649
       4 -> 15        -0.11577
       5 -> 15         0.47618

 Excited State  28:      Singlet-A     26.6809 eV   46.47 nm  f=0.0000  <S**2>=0.000
       3 -> 13         0.17938
       3 -> 14         0.43391
       3 -> 15         0.16471
       4 -> 14        -0.14712
       4 -> 15         0.45335
       5 -> 15         0.12404

 Excited State  29:      Singlet-A     26.7439 eV   46.36 nm  f=0.0000  <S**2>=0.000
       3 -> 13        -0.15135
       3 -> 14         0.10484
       3 -> 15        -0.10006
       4 -> 13         0.34067
       4 -> 14        -0.30023
       5 -> 13        -0.16054
       5 -> 14        -0.33337
       5 -> 15        -0.32918

 Excited State  30:      Singlet-A     26.7439 eV   46.36 nm  f=0.0000  <S**2>=0.000
       3 -> 13         0.36766
       3 -> 14         0.27466
       3 -> 15        -0.27686
       4 -> 15        -0.34999
       5 -> 13         0.17692
       5 -> 14        -0.20603
       5 -> 15         0.11109

 The electronic state is 1-A.
 Alpha  occ. eigenvalues --  -10.24295  -0.77111  -0.45430  -0.45430  -0.45430
 Alpha virt. eigenvalues --    0.11944   0.19232   0.19232   0.19232   0.47077
 Alpha virt. eigenvalues --    0.47077   0.47077   0.71598   0.71598   0.71598
 Alpha virt. eigenvalues --    0.75515   0.96944   0.96944   1.10295   1.49393

 Mulliken charges:
               1
     1  C   -0.133080
     2  H    0.033270
     3  H    0.033270
     4  H    0.033270
     5  H    0.033270
 Sum of Mulliken charges =  -0.00000

 Dipole moment (field-independent basis, Debye):
    X=              0.0000    Y=             -0.0000    Z=             -0.0000  Tot=              0.0000
 Quadrupole moment (field-independent basis, Debye-Ang):
   XX=             -8.3366   YY=             -8.3366   ZZ=             -8.3366
   XY=             -0.0000   XZ=              0.0000   YZ=              0.0000

 Normal termination of Gaussian 16 at Mon Mar  7 19:37:35 2022.
