                         Program Version 5.0.1 -  RELEASE  -
|  1> ! PAL2
|  2> ! RKS cc-pVDZ B3LYP TightOpt
|  3> ! Opt Freq
|  4> %method
|  5> end
|  6> %maxcore 4000
|  7> * xyz 0 1
|  8> C  1.011100  0.077080  -0.059530
|  9> C  2.525690  0.079850  -0.066400
| 10> O  3.005810  1.243650  -0.723650
| 11> H  0.625160  -0.805710  0.457800
| 12> H  0.619370  0.085560  -1.081990
| 13> H  0.626450  0.974410  0.436200
| 14> H  2.917510  -0.801850  -0.582510
| 15> H  2.913160  0.081420  0.956540
| 16> H  2.664530  1.228020  -1.634070
| 17> *
| 18>
| 19>
| 20>                          ****END OF INPUT****
 Total Charge           Charge          ....    0
 Multiplicity           Mult            ....    1
 Number of Electrons    NEL             ....   26
FINAL SINGLE POINT ENERGY      -154.947132304407
FINAL SINGLE POINT ENERGY      -154.948461591118
FINAL SINGLE POINT ENERGY      -154.948596038784
FINAL SINGLE POINT ENERGY      -154.948612524117
FINAL SINGLE POINT ENERGY      -154.948615615835
FINAL SINGLE POINT ENERGY      -154.948616045014
                    ***********************HURRAY********************

CARTESIAN COORDINATES (ANGSTROEM)
---------------------------------
  C      0.995034    0.072307   -0.057909
  C      2.519739    0.091224   -0.093811
  O      3.045169    1.258512   -0.712507
  H      0.620472   -0.812967    0.483966
  H      0.574785    0.037606   -1.079451
  H      0.607934    0.977368    0.437802
  H      2.899584   -0.830996   -0.581981
  H      2.923832    0.097679    0.932221
  H      2.722232    1.271698   -1.625941

 Multiplicity           Mult            ....    1
 Number of Electrons    NEL             ....   26
 Basis Dimension        Dim             ....   72

ORBITAL ENERGIES
----------------

  NO   OCC          E(Eh)            E(eV)
   0   2.0000     -19.126000      -520.4449
   1   2.0000     -10.225974      -278.2629
   2   2.0000     -10.178672      -276.9757
   3   2.0000      -1.008096       -27.4317
   4   2.0000      -0.739915       -20.1341
   5   2.0000      -0.615599       -16.7513
   6   2.0000      -0.492588       -13.4040
   7   2.0000      -0.443258       -12.0617
   8   2.0000      -0.424051       -11.5390
   9   2.0000      -0.374669       -10.1953
  10   2.0000      -0.363036        -9.8787
  11   2.0000      -0.316900        -8.6233
  12   2.0000      -0.261412        -7.1134
  13   0.0000       0.054926         1.4946
  14   0.0000       0.092396         2.5142
  15   0.0000       0.110186         2.9983
  16   0.0000       0.121594         3.3087
  17   0.0000       0.136289         3.7086

MULLIKEN ATOMIC CHARGES
-----------------------
   0 C :   -0.048665
   1 C :    0.112627
   2 O :   -0.271371
   3 H :    0.014677
   4 H :    0.010946
   5 H :    0.028209
   6 H :   -0.001270
   7 H :    0.021284
   8 H :    0.133563
Sum of atomic charges:    0.0000000

LOEWDIN ATOMIC CHARGES
----------------------
   0 C :   -0.085766
   1 C :   -0.032476
   2 O :   -0.034394
   3 H :    0.030343
   4 H :    0.021626
   5 H :    0.028198
   6 H :    0.007645
   7 H :    0.024909
   8 H :    0.039915

  Mayer bond orders larger than 0.100000
B(  0-C ,  1-C ) :   1.0975 B(  0-C ,  3-H ) :   0.9574 B(  0-C ,  4-H ) :   0.9680
B(  0-C ,  5-H ) :   0.9677 B(  1-C ,  2-O ) :   1.0850 B(  1-C ,  6-H ) :   0.9478
B(  1-C ,  7-H ) :   0.9554 B(  2-O ,  8-H ) :   1.0095

FINAL SINGLE POINT ENERGY      -154.948616042122

DIPOLE MOMENT
-------------
                                X             Y             Z
Electronic contribution:      2.29384       1.71576      -0.72491
Nuclear contribution   :     -2.66428      -2.08553       0.44147
                        -----------------------------------------
Total Dipole Moment    :     -0.37044      -0.36977      -0.28344
                        -----------------------------------------
Magnitude (a.u.)       :      0.59523
Magnitude (Debye)      :      1.51295

VIBRATIONAL FREQUENCIES
-----------------------

Scaling factor for frequencies =  1.000000000  (already applied!)

   0:         0.00 cm**-1
   1:         0.00 cm**-1
   2:         0.00 cm**-1
   3:         0.00 cm**-1
   4:         0.00 cm**-1
   5:         0.00 cm**-1
   6:       270.66 cm**-1
   7:       313.58 cm**-1
   8:       418.30 cm**-1
   9:       803.58 cm**-1
  10:       890.03 cm**-1
  11:      1060.50 cm**-1
  12:      1084.64 cm**-1
  13:      1130.26 cm**-1
  14:      1272.36 cm**-1
  15:      1366.74 cm**-1
  16:      1385.48 cm**-1
  17:      1413.66 cm**-1
  18:      1458.42 cm**-1
  19:      1465.25 cm**-1
  20:      1491.99 cm**-1
  21:      2961.82 cm**-1
  22:      3015.62 cm**-1
  23:      3060.71 cm**-1
  24:      3087.41 cm**-1
  25:      3107.30 cm**-1
  26:      3758.76 cm**-1

IR SPECTRUM
-----------

 Mode   freq       eps      Int      T**2         TX        TY        TZ
       cm**-1   L/(mol*cm) km/mol    a.u.
----------------------------------------------------------------------------
  6:    270.66   0.000448    2.26  0.000516  ( 0.014828 -0.017098  0.002048)
  7:    313.58   0.020846  105.35  0.020745  (-0.119666  0.056324  0.057034)
  8:    418.30   0.003156   15.95  0.002355  ( 0.041868 -0.023680 -0.006390)
  9:    803.58   0.000523    2.64  0.000203  (-0.002006  0.013650  0.003563)
 10:    890.03   0.001806    9.13  0.000633  ( 0.009171  0.021181 -0.010018)
 11:   1060.50   0.002612   13.20  0.000769  ( 0.001059 -0.023920  0.013977)
 12:   1084.64   0.019921  100.67  0.005731  ( 0.040763  0.054618 -0.032964)
 13:   1130.26   0.002074   10.48  0.000573  ( 0.001700  0.023456 -0.004409)
 14:   1272.36   0.002077   10.50  0.000509  (-0.011682 -0.018162  0.006568)
 15:   1366.74   0.000146    0.74  0.000033  ( 0.001067 -0.002616 -0.005029)
 16:   1385.48   0.000665    3.36  0.000150  (-0.002385  0.011804 -0.002162)
 17:   1413.66   0.010457   52.84  0.002308  ( 0.032458  0.032529 -0.014023)
 18:   1458.42   0.001648    8.33  0.000353  ( 0.006251  0.000934 -0.017686)
 19:   1465.25   0.000223    1.13  0.000047  ( 0.001263 -0.005594  0.003816)
 20:   1491.99   0.000034    0.17  0.000007  ( 0.002660  0.000194  0.000194)
 21:   2961.82   0.015956   80.63  0.001681  (-0.019632  0.035580  0.005455)
 22:   3015.62   0.003589   18.14  0.000371  ( 0.018060  0.003728  0.005603)
 23:   3060.71   0.002310   11.68  0.000236  ( 0.010158  0.003079  0.011086)
 24:   3087.41   0.011288   57.05  0.001141  ( 0.002490 -0.007286  0.032889)
 25:   3107.30   0.006272   31.70  0.000630  (-0.001290  0.023176  0.009543)
 26:   3758.76   0.002706   13.67  0.000225  (-0.001007  0.004070 -0.014389)

--------------------------
THERMOCHEMISTRY AT 298.15K
--------------------------

Temperature         ... 298.15 K
Pressure            ... 1.00 atm
Total Mass          ... 46.07 AMU

Throughout the following assumptions are being made:
  (1) The electronic state is orbitally nondegenerate
  (2) There are no thermally accessible electronically excited states
  (3) Hindered rotations indicated by low frequency modes are not
      treated as such but are treated as vibrations and this may
      cause some error
  (4) All equations used are the standard statistical mechanics
      equations for an ideal gas
  (5) All vibrations are strictly harmonic

freq.     270.66  E(vib)   ...       0.29
freq.     313.58  E(vib)   ...       0.25
freq.     418.30  E(vib)   ...       0.18
freq.     803.58  E(vib)   ...       0.05
freq.     890.03  E(vib)   ...       0.04
freq.    1060.50  E(vib)   ...       0.02
freq.    1084.64  E(vib)   ...       0.02
freq.    1130.26  E(vib)   ...       0.01
freq.    1272.36  E(vib)   ...       0.01
freq.    1366.74  E(vib)   ...       0.01
freq.    1385.48  E(vib)   ...       0.00
freq.    1413.66  E(vib)   ...       0.00
freq.    1458.42  E(vib)   ...       0.00
freq.    1465.25  E(vib)   ...       0.00
freq.    1491.99  E(vib)   ...       0.00
freq.    2961.82  E(vib)   ...       0.00
freq.    3015.62  E(vib)   ...       0.00
freq.    3060.71  E(vib)   ...       0.00
freq.    3087.41  E(vib)   ...       0.00
freq.    3107.30  E(vib)   ...       0.00
freq.    3758.76  E(vib)   ...       0.00

------------
INNER ENERGY
------------

The inner energy is: U= E(el) + E(ZPE) + E(vib) + E(rot) + E(trans)
    E(el)   - is the total energy from the electronic structure calculation
              = E(kin-el) + E(nuc-el) + E(el-el) + E(nuc-nuc)
    E(ZPE)  - the the zero temperature vibrational energy from the frequency calculation
    E(vib)  - the the finite temperature correction to E(ZPE) due to population
              of excited vibrational states
    E(rot)  - is the rotational thermal energy
    E(trans)- is the translational thermal energy

Summary of contributions to the inner energy U:
Electronic energy                ...   -154.94861604 Eh
Zero point energy                ...      0.07931912 Eh      49.77 kcal/mol
Thermal vibrational correction   ...      0.00141741 Eh       0.89 kcal/mol
Thermal rotational correction    ...      0.00141627 Eh       0.89 kcal/mol
Thermal translational correction ...      0.00141627 Eh       0.89 kcal/mol
-----------------------------------------------------------------------
Total thermal energy                   -154.86504697 Eh

Summary of corrections to the electronic energy:
(perhaps to be used in another calculation)
Total thermal correction                  0.00424995 Eh       2.67 kcal/mol
Non-thermal (ZPE) correction              0.07931912 Eh      49.77 kcal/mol
-----------------------------------------------------------------------
Total correction                          0.08356907 Eh      52.44 kcal/mol

--------
ENTHALPY
--------

The enthalpy is H = U + kB*T
                kB is Boltzmann's constant
Total free energy                 ...   -154.86504697 Eh
Thermal Enthalpy correction       ...      0.00094421 Eh       0.59 kcal/mol
-----------------------------------------------------------------------
Total Enthalpy                    ...   -154.86410276 Eh

Note: Only C1 symmetry has been detected, increase convergence thresholds
      if your molecule has a higher symmetry. Symmetry factor of 1.0 is
      used for the rotational entropy correction.

Note: Rotational entropy computed according to Herzberg
Infrared and Raman Spectra, Chapter V,1, Van Nostrand Reinhold, 1945
Point Group:  C1, Symmetry Number:   1
Rotational constants in cm-1:     1.139576     0.304716     0.269364

Vibrational entropy computed according to the QRRHO of S. Grimme
Chem.Eur.J. 2012 18 9955

-------
ENTROPY
-------

The entropy contributions are T*S = T*(S(el)+S(vib)+S(rot)+S(trans))
     S(el)   - electronic entropy
     S(vib)  - vibrational entropy
     S(rot)  - rotational entropy
     S(trans)- translational entropy
The entropies will be listed as multiplied by the temperature to get
units of energy

Electronic entropy                ...      0.00000000 Eh      0.00 kcal/mol
Vibrational entropy               ...      0.00214563 Eh      1.35 kcal/mol
Rotational entropy                ...      0.01062939 Eh      6.67 kcal/mol
Translational entropy             ...      0.01777359 Eh     11.15 kcal/mol
-----------------------------------------------------------------------
Final entropy term                ...      0.03054861 Eh     19.17 kcal/mol

In case the symmetry of your molecule has not been determined correctly
or in case you have a reason to use a different symmetry number we print
out the resulting rotational entropy values for sn=1,12 :
 --------------------------------------------------------
|  sn= 1 | S(rot)=       0.01062939 Eh      6.67 kcal/mol|
|  sn= 2 | S(rot)=       0.00997493 Eh      6.26 kcal/mol|
|  sn= 3 | S(rot)=       0.00959210 Eh      6.02 kcal/mol|
|  sn= 4 | S(rot)=       0.00932047 Eh      5.85 kcal/mol|
|  sn= 5 | S(rot)=       0.00910979 Eh      5.72 kcal/mol|
|  sn= 6 | S(rot)=       0.00893764 Eh      5.61 kcal/mol|
|  sn= 7 | S(rot)=       0.00879210 Eh      5.52 kcal/mol|
|  sn= 8 | S(rot)=       0.00866602 Eh      5.44 kcal/mol|
|  sn= 9 | S(rot)=       0.00855481 Eh      5.37 kcal/mol|
|  sn=10 | S(rot)=       0.00845533 Eh      5.31 kcal/mol|
|  sn=11 | S(rot)=       0.00836534 Eh      5.25 kcal/mol|
|  sn=12 | S(rot)=       0.00828319 Eh      5.20 kcal/mol|
 --------------------------------------------------------

-------------------
GIBBS FREE ENERGY
-------------------

The Gibbs free energy is G = H - T*S

Total enthalpy                    ...   -154.86410276 Eh
Total entropy correction          ...     -0.03054861 Eh    -19.17 kcal/mol
-----------------------------------------------------------------------
Final Gibbs free energy         ...   -154.89465137 Eh

For completeness - the Gibbs free energy minus the electronic energy
G-E(el)                           ...      0.05396467 Eh     33.86 kcal/mol

                             ****ORCA TERMINATED NORMALLY****
TOTAL RUN TIME: 0 days 0 hours 31 minutes 54 seconds 436 msec
