                         Program Version 5.0.1 -  RELEASE  -
|  1> ! PAL2
|  2> ! RKS cc-pVDZ B3LYP TightOpt
|  3> ! Opt Freq
|  4> %method
|  5> end
|  6> %maxcore 4000
|  7> * xyz 0 1
|  8> O  0.906440  -0.069780  0.021830
|  9> H  1.874330  -0.048440  -0.019410
| 10> H  0.627590  0.356710  -0.802370
| 11> *
| 12>
| 13>
| 14>                          ****END OF INPUT****
 Total Charge           Charge          ....    0
 Multiplicity           Mult            ....    1
 Number of Electrons    NEL             ....   10
FINAL SINGLE POINT ENERGY       -76.383526221997
FINAL SINGLE POINT ENERGY       -76.383557080283
FINAL SINGLE POINT ENERGY       -76.383566123999
FINAL SINGLE POINT ENERGY       -76.383566187252
                    ***********************HURRAY********************

CARTESIAN COORDINATES (ANGSTROEM)
---------------------------------
  O      0.903253   -0.071850    0.025831
  H      1.870469   -0.045632   -0.024837
  H      0.634638    0.355972   -0.800944

 Multiplicity           Mult            ....    1
 Number of Electrons    NEL             ....   10
 Basis Dimension        Dim             ....   24

ORBITAL ENERGIES
----------------

  NO   OCC          E(Eh)            E(eV)
   0   2.0000     -19.121084      -520.3111
   1   2.0000      -0.988276       -26.8923
   2   2.0000      -0.503219       -13.6933
   3   2.0000      -0.363919        -9.9028
   4   2.0000      -0.284188        -7.7332
   5   0.0000       0.052184         1.4200
   6   0.0000       0.127864         3.4793
   7   0.0000       0.552865        15.0442
   8   0.0000       0.614949        16.7336
   9   0.0000       0.907192        24.6860

MULLIKEN ATOMIC CHARGES
-----------------------
   0 O :   -0.262000
   1 H :    0.131005
   2 H :    0.130995
Sum of atomic charges:    0.0000000

LOEWDIN ATOMIC CHARGES
----------------------
   0 O :   -0.091722
   1 H :    0.045863
   2 H :    0.045859

  Mayer bond orders larger than 0.100000
B(  0-O ,  1-H ) :   1.0310 B(  0-O ,  2-H ) :   1.0310

FINAL SINGLE POINT ENERGY       -76.383566187358

DIPOLE MOMENT
-------------
                                X             Y             Z
Electronic contribution:     -0.14146      -0.09196       0.17765
Nuclear contribution   :      0.58149       0.37793      -0.73035
                        -----------------------------------------
Total Dipole Moment    :      0.44003       0.28597      -0.55269
                        -----------------------------------------
Magnitude (a.u.)       :      0.76215
Magnitude (Debye)      :      1.93723

VIBRATIONAL FREQUENCIES
-----------------------

Scaling factor for frequencies =  1.000000000  (already applied!)

   0:         0.00 cm**-1
   1:         0.00 cm**-1
   2:         0.00 cm**-1
   3:         0.00 cm**-1
   4:         0.00 cm**-1
   5:         0.00 cm**-1
   6:      1658.05 cm**-1
   7:      3746.33 cm**-1
   8:      3847.32 cm**-1

IR SPECTRUM
-----------

 Mode   freq       eps      Int      T**2         TX        TY        TZ
       cm**-1   L/(mol*cm) km/mol    a.u.
----------------------------------------------------------------------------
  6:   1658.05   0.011015   55.67  0.002073  (-0.026313 -0.017083  0.033000)
  7:   3746.33   0.000544    2.75  0.000045  ( 0.003899  0.002513 -0.004875)
  8:   3847.32   0.003885   19.64  0.000315  ( 0.014486 -0.004721  0.009112)

--------------------------
THERMOCHEMISTRY AT 298.15K
--------------------------

Temperature         ... 298.15 K
Pressure            ... 1.00 atm
Total Mass          ... 18.02 AMU

Throughout the following assumptions are being made:
  (1) The electronic state is orbitally nondegenerate
  (2) There are no thermally accessible electronically excited states
  (3) Hindered rotations indicated by low frequency modes are not
      treated as such but are treated as vibrations and this may
      cause some error
  (4) All equations used are the standard statistical mechanics
      equations for an ideal gas
  (5) All vibrations are strictly harmonic

freq.    1658.05  E(vib)   ...       0.00
freq.    3746.33  E(vib)   ...       0.00
freq.    3847.32  E(vib)   ...       0.00

------------
INNER ENERGY
------------

The inner energy is: U= E(el) + E(ZPE) + E(vib) + E(rot) + E(trans)
    E(el)   - is the total energy from the electronic structure calculation
              = E(kin-el) + E(nuc-el) + E(el-el) + E(nuc-nuc)
    E(ZPE)  - the the zero temperature vibrational energy from the frequency calculation
    E(vib)  - the the finite temperature correction to E(ZPE) due to population
              of excited vibrational states
    E(rot)  - is the rotational thermal energy
    E(trans)- is the translational thermal energy

Summary of contributions to the inner energy U:
Electronic energy                ...    -76.38356619 Eh
Zero point energy                ...      0.02107694 Eh      13.23 kcal/mol
Thermal vibrational correction   ...      0.00000253 Eh       0.00 kcal/mol
Thermal rotational correction    ...      0.00141627 Eh       0.89 kcal/mol
Thermal translational correction ...      0.00141627 Eh       0.89 kcal/mol
-----------------------------------------------------------------------
Total thermal energy                    -76.35965417 Eh

Summary of corrections to the electronic energy:
(perhaps to be used in another calculation)
Total thermal correction                  0.00283508 Eh       1.78 kcal/mol
Non-thermal (ZPE) correction              0.02107694 Eh      13.23 kcal/mol
-----------------------------------------------------------------------
Total correction                          0.02391201 Eh      15.00 kcal/mol

--------
ENTHALPY
--------

The enthalpy is H = U + kB*T
                kB is Boltzmann's constant
Total free energy                 ...    -76.35965417 Eh
Thermal Enthalpy correction       ...      0.00094421 Eh       0.59 kcal/mol
-----------------------------------------------------------------------
Total Enthalpy                    ...    -76.35870996 Eh

Note: Rotational entropy computed according to Herzberg
Infrared and Raman Spectra, Chapter V,1, Van Nostrand Reinhold, 1945
Point Group:  C2v, Symmetry Number:   2
Rotational constants in cm-1:    25.723895    14.600212     9.313891

Vibrational entropy computed according to the QRRHO of S. Grimme
Chem.Eur.J. 2012 18 9955

-------
ENTROPY
-------

The entropy contributions are T*S = T*(S(el)+S(vib)+S(rot)+S(trans))
     S(el)   - electronic entropy
     S(vib)  - vibrational entropy
     S(rot)  - rotational entropy
     S(trans)- translational entropy
The entropies will be listed as multiplied by the temperature to get
units of energy

Electronic entropy                ...      0.00000000 Eh      0.00 kcal/mol
Vibrational entropy               ...      0.00000285 Eh      0.00 kcal/mol
Rotational entropy                ...      0.00500411 Eh      3.14 kcal/mol
Translational entropy             ...      0.01644380 Eh     10.32 kcal/mol
-----------------------------------------------------------------------
Final entropy term                ...      0.02145076 Eh     13.46 kcal/mol

In case the symmetry of your molecule has not been determined correctly
or in case you have a reason to use a different symmetry number we print
out the resulting rotational entropy values for sn=1,12 :
 --------------------------------------------------------
|  sn= 1 | S(rot)=       0.00565857 Eh      3.55 kcal/mol|
|  sn= 2 | S(rot)=       0.00500411 Eh      3.14 kcal/mol|
|  sn= 3 | S(rot)=       0.00462128 Eh      2.90 kcal/mol|
|  sn= 4 | S(rot)=       0.00434966 Eh      2.73 kcal/mol|
|  sn= 5 | S(rot)=       0.00413897 Eh      2.60 kcal/mol|
|  sn= 6 | S(rot)=       0.00396682 Eh      2.49 kcal/mol|
|  sn= 7 | S(rot)=       0.00382128 Eh      2.40 kcal/mol|
|  sn= 8 | S(rot)=       0.00369520 Eh      2.32 kcal/mol|
|  sn= 9 | S(rot)=       0.00358399 Eh      2.25 kcal/mol|
|  sn=10 | S(rot)=       0.00348451 Eh      2.19 kcal/mol|
|  sn=11 | S(rot)=       0.00339452 Eh      2.13 kcal/mol|
|  sn=12 | S(rot)=       0.00331237 Eh      2.08 kcal/mol|
 --------------------------------------------------------

-------------------
GIBBS FREE ENERGY
-------------------

The Gibbs free energy is G = H - T*S

Total enthalpy                    ...    -76.35870996 Eh
Total entropy correction          ...     -0.02145076 Eh    -13.46 kcal/mol
-----------------------------------------------------------------------
Final Gibbs free energy         ...    -76.38016073 Eh

For completeness - the Gibbs free energy minus the electronic energy
G-E(el)                           ...      0.00340546 Eh      2.14 kcal/mol

                             ****ORCA TERMINATED NORMALLY****
TOTAL RUN TIME: 0 days 0 hours 0 minutes 18 seconds 14 msec
