 Gaussian 16, Revision A.03,
 Gaussian 16:  ES64L-G16RevA.03 25-Dec-2016

 -------------------------------------------------
 #p opt freq b3lyp/cc-pvdz geom=connectivity polar
 -------------------------------------------------

 -----------
 Ethanol.xyz
 -----------
 Symbolic Z-matrix:
 Charge =  0 Multiplicity = 1

 SCF Done:  E(RB3LYP) =  -155.042485630     A.U. after   11 cycles
 SCF Done:  E(RB3LYP) =  -155.043847798     A.U. after   10 cycles
 SCF Done:  E(RB3LYP) =  -155.043934266     A.U. after    8 cycles
 SCF Done:  E(RB3LYP) =  -155.043939407     A.U. after    7 cycles
 SCF Done:  E(RB3LYP) =  -155.043939904     A.U. after    7 cycles
 Optimization completed.
    -- Stationary point found.
 Normal termination of Gaussian 16 at Thu Dec 16 11:33:05 2021.

 -------------------------------------------------------------------
 #P Geom=AllCheck Guess=TCheck SCRF=Check GenChk RB3LYP/CC-pVDZ Freq
 -------------------------------------------------------------------

 Structure from the checkpoint file:  "DFT_Ethanol_gaus.chk"
 -----------
 Ethanol.xyz
 -----------
 Charge =  0 Multiplicity = 1

                         Standard orientation:
 ---------------------------------------------------------------------
 Center     Atomic      Atomic             Coordinates (Angstroms)
 Number     Number       Type             X           Y           Z
 ---------------------------------------------------------------------
      1          6           0       -1.214494   -0.238758   -0.022333
      2          6           0        0.085679    0.554608    0.046877
      3          8           0        1.240438   -0.259807   -0.108394
      4          1           0       -2.091352    0.428037    0.036279
      5          1           0       -1.286526   -0.955302    0.815440
      6          1           0       -1.269683   -0.809761   -0.962974
      7          1           0        0.125463    1.136639    0.991319
      8          1           0        0.129787    1.284113   -0.778480
      9          1           0        1.241700   -0.900372    0.618308
 ---------------------------------------------------------------------

 SCF Done:  E(RB3LYP) =  -155.043939904     A.U. after    1 cycles

 The electronic state is 1-A.
 Alpha  occ. eigenvalues --  -19.12957 -10.22954 -10.18218  -1.01168  -0.74351
 Alpha  occ. eigenvalues --   -0.61908  -0.49618  -0.44680  -0.42750  -0.37815
 Alpha  occ. eigenvalues --   -0.36650  -0.32034  -0.26487
 Alpha virt. eigenvalues --    0.05199   0.08950   0.10732   0.11873   0.13346
 Alpha virt. eigenvalues --    0.15559   0.20779   0.23583   0.41342   0.44039
 Alpha virt. eigenvalues --    0.46545   0.49768   0.54071   0.56939   0.61061

 Mulliken charges:
               1
     1  C   -0.050033
     2  C    0.111589
     3  O   -0.271899
     4  H    0.015224
     5  H    0.011446
     6  H    0.028731
     7  H   -0.000683
     8  H    0.021816
     9  H    0.133809
 Sum of Mulliken charges =  -0.00000

 Dipole moment (field-independent basis, Debye):
    X=             -1.0116    Y=             -0.2333    Z=              1.1030  Tot=              1.5147
 Quadrupole moment (field-independent basis, Debye-Ang):
   XX=            -21.9194   YY=            -18.5861   ZZ=            -19.0896
   XY=             -1.0121   XZ=              1.6745   YZ=             -1.3654

  Exact polarizability:  29.315  -0.713  28.300   0.313  -0.963  26.468
 Approx polarizability:  36.532  -2.273  36.604  -0.591  -1.717  35.644

                      1                      2                      3
                      A                      A                      A
 Frequencies --    272.2220               317.1778               418.9436
 Red. masses --      1.0900                 1.1091                 2.6700
 Frc consts  --      0.0476                 0.0657                 0.2761
 IR Inten    --      2.7465               104.1264                16.6039

                      4                      5                      6
                      A                      A                      A
 Frequencies --    804.5768               891.1383              1061.6969
 Red. masses --      1.0824                 2.1705                 1.5320
 Frc consts  --      0.4128                 1.0155                 1.0175
 IR Inten    --      2.7165                 9.1331                14.3729

                      7                      8                      9
                      A                      A                      A
 Frequencies --   1085.6746              1131.1529              1273.4965
 Red. masses --      2.7275                 1.8952                 1.2552
 Frc consts  --      1.8941                 1.4287                 1.1994
 IR Inten    --     99.6063                10.5675                10.4345

                     10                     11                     12
                      A                      A                      A
 Frequencies --   1367.8596              1386.4708              1414.9284
 Red. masses --      1.2347                 1.2215                 1.2780
 Frc consts  --      1.3611                 1.3834                 1.5075
 IR Inten    --      0.7172                 3.4305                52.9148

                     13                     14                     15
                      A                      A                      A
 Frequencies --   1459.5749              1466.4947              1493.2149
 Red. masses --      1.0518                 1.0466                 1.0923
 Frc consts  --      1.3202                 1.3262                 1.4350
 IR Inten    --      8.2923                 1.1467                 0.1769

                     16                     17                     18
                      A                      A                      A
 Frequencies --   2965.2257              3018.8571              3064.4581
 Red. masses --      1.0728                 1.0379                 1.0914
 Frc consts  --      5.5577                 5.5732                 6.0385
 IR Inten    --     80.4360                18.0628                11.7781

                     19                     20                     21
                      A                      A                      A
 Frequencies --   3091.2472              3110.9421              3763.2028
 Red. masses --      1.0994                 1.1026                 1.0661
 Frc consts  --      6.1900                 6.2874                 8.8953
 IR Inten    --     56.5845                31.6218                13.8999

 - Thermochemistry -
 -------------------
 Temperature   298.150 Kelvin.  Pressure   1.00000 Atm.
 Atom     1 has atomic number  6 and mass  12.00000

 Molecular mass:    46.04186 amu.
 Principal axes and moments of inertia in atomic units:
                           1         2         3
     Eigenvalues --    52.78098 197.34575 223.23435
           X            0.99976   0.01433   0.01681
           Y           -0.01339   0.99840  -0.05493
           Z           -0.01757   0.05469   0.99835
 This molecule is an asymmetric top.
 Rotational symmetry number  1.
 Rotational temperatures (Kelvin)      1.64101     0.43889     0.38800
 Rotational constants (GHZ):          34.19302     9.14507     8.08451
 Zero-point vibrational energy     208500.5 (Joules/Mol)
                                   49.83281 (Kcal/Mol)
 Warning -- explicit consideration of   3 degrees of freedom as
           vibrations may cause significant error
 Vibrational temperatures:    391.67   456.35   602.77  1157.61  1282.15
          (Kelvin)           1527.54  1562.04  1627.48  1832.28  1968.04
                             1994.82  2035.77  2100.00  2109.96  2148.40
                             4266.30  4343.46  4409.07  4447.62  4475.95
                             5414.41

 Zero-point correction=                           0.079414 (Hartree/Particle)
 Thermal correction to Energy=                    0.083655
 Thermal correction to Enthalpy=                  0.084600
 Thermal correction to Gibbs Free Energy=         0.054074
 Sum of electronic and zero-point Energies=           -154.964526
 Sum of electronic and thermal Energies=              -154.960285
 Sum of electronic and thermal Enthalpies=            -154.959340
 Sum of electronic and thermal Free Energies=         -154.989865

                     E (Thermal)             CV                S
                      KCal/Mol        Cal/Mol-Kelvin    Cal/Mol-Kelvin
 Total                   52.495             13.512             64.245
 Electronic               0.000              0.000              0.000
 Translational            0.889              2.981             37.406
 Rotational               0.889              2.981             22.368
 Vibrational             50.717              7.550              4.471
 Vibration     1          0.675              1.724              1.582
 Vibration     2          0.704              1.641              1.325
 Vibration     3          0.782              1.429              0.896

 Optimization completed.
    -- Stationary point found.
 Normal termination of Gaussian 16 at Thu Dec 16 11:33:43 2021.
