 Gaussian 16, Revision A.03,
 Gaussian 16:  ES64L-G16RevA.03 25-Dec-2016

 -----------------------------------
 # td=(nstates=30) cam-b3lyp/cc-pVDZ
 -----------------------------------

 -----------
 Ethanol.xyz
 -----------
 Symbolic Z-matrix:
 Charge =  0 Multiplicity = 1

                         Standard orientation:
 ---------------------------------------------------------------------
 Center     Atomic      Atomic             Coordinates (Angstroms)
 Number     Number       Type             X           Y           Z
 ---------------------------------------------------------------------
      1          6           0       -1.189013   -0.242578   -0.020188
      2          6           0        0.082495    0.577704    0.046466
      3          8           0        1.213414   -0.266431   -0.112846
      4          1           0       -2.070742    0.395723    0.084802
      5          1           0       -1.204425   -0.997807    0.772491
      6          1           0       -1.251755   -0.779289   -0.972506
      7          1           0        0.164518    1.097414    1.005873
      8          1           0        0.098776    1.324289   -0.752839
      9          1           0        1.195425   -0.919638    0.607278
 ---------------------------------------------------------------------

 SCF Done:  E(RCAM-B3LYP) =  -154.963189746     A.U. after   12 cycles

 Excitation energies and oscillator strengths:

 Excited State   1:      Singlet-A      7.3776 eV  168.05 nm  f=0.0041  <S**2>=0.000
      13 -> 14         0.65736
      13 -> 15        -0.22124
 This state for optimization and/or second-order correction.
 Total Energy, E(TD-HF/TD-DFT) =  -154.692068069
 Copying the excited state density for this state as the 1-particle RhoCI density.

 Excited State   2:      Singlet-A      8.9891 eV  137.93 nm  f=0.0146  <S**2>=0.000
      12 -> 14         0.11593
      13 -> 14         0.21216
      13 -> 15         0.63498
      13 -> 16        -0.11809
      13 -> 18         0.12231

 Excited State   3:      Singlet-A      9.1744 eV  135.14 nm  f=0.0146  <S**2>=0.000
      12 -> 14         0.66495
      12 -> 15        -0.12171
      13 -> 15        -0.10452

 Excited State   4:      Singlet-A      9.6734 eV  128.17 nm  f=0.0298  <S**2>=0.000
      13 -> 14         0.10446
      13 -> 16         0.65715
      13 -> 17        -0.14438
      13 -> 20         0.13353

 Excited State   5:      Singlet-A      9.9355 eV  124.79 nm  f=0.0825  <S**2>=0.000
      13 -> 15         0.10361
      13 -> 16         0.16371
      13 -> 17         0.64935
      13 -> 18        -0.11009
      13 -> 19         0.11793

 Excited State   6:      Singlet-A     10.3340 eV  119.98 nm  f=0.0124  <S**2>=0.000
      11 -> 14         0.35439
      12 -> 14         0.15447
      12 -> 15         0.55998

 Excited State   7:      Singlet-A     10.6898 eV  115.98 nm  f=0.0470  <S**2>=0.000
      10 -> 14        -0.12028
      11 -> 14        -0.17704
      13 -> 17         0.12680
      13 -> 18         0.60662
      13 -> 20         0.16571

 Excited State   8:      Singlet-A     10.8303 eV  114.48 nm  f=0.0904  <S**2>=0.000
      11 -> 14         0.54929
      12 -> 15        -0.35838
      13 -> 18         0.19544

 Excited State   9:      Singlet-A     10.9984 eV  112.73 nm  f=0.0108  <S**2>=0.000
      13 -> 19         0.66879

 Excited State  10:      Singlet-A     11.0418 eV  112.29 nm  f=0.0790  <S**2>=0.000
      10 -> 14         0.42385
      11 -> 14        -0.10372
      12 -> 16         0.49391
      12 -> 17        -0.12596
      13 -> 19        -0.11906

 Excited State  11:      Singlet-A     11.2280 eV  110.42 nm  f=0.0985  <S**2>=0.000
       9 -> 14         0.10452
      10 -> 14         0.44859
      12 -> 16        -0.40521
      13 -> 18         0.13583
      13 -> 20        -0.24991

 Excited State  12:      Singlet-A     11.4331 eV  108.44 nm  f=0.0686  <S**2>=0.000
      10 -> 14        -0.14221
      12 -> 15         0.10753
      12 -> 16         0.21748
      12 -> 17         0.47438
      13 -> 18         0.12162
      13 -> 20        -0.38346

 Excited State  13:      Singlet-A     11.4833 eV  107.97 nm  f=0.0538  <S**2>=0.000
      10 -> 14         0.19171
      12 -> 17         0.44835
      13 -> 20         0.44933

 Excited State  14:      Singlet-A     11.8467 eV  104.66 nm  f=0.0238  <S**2>=0.000
       8 -> 14        -0.12845
      11 -> 15         0.62561
      11 -> 16         0.11099
      12 -> 18        -0.19309

 Excited State  15:      Singlet-A     11.9813 eV  103.48 nm  f=0.0315  <S**2>=0.000
      10 -> 15        -0.21912
      11 -> 15         0.13965
      11 -> 16         0.14766
      11 -> 18         0.17712
      12 -> 18         0.57602

 Excited State  16:      Singlet-A     12.2595 eV  101.13 nm  f=0.1282  <S**2>=0.000
       9 -> 14        -0.12840
      10 -> 15         0.60007
      10 -> 16         0.11223
      11 -> 15         0.10432
      12 -> 18         0.21521

 Excited State  17:      Singlet-A     12.3685 eV  100.24 nm  f=0.1148  <S**2>=0.000
       8 -> 14        -0.12441
       9 -> 14        -0.36229
      10 -> 16         0.14846
      11 -> 15        -0.11704
      11 -> 16         0.49348
      12 -> 18        -0.10004
      12 -> 19         0.15847
      12 -> 20        -0.12402

 Excited State  18:      Singlet-A     12.4457 eV   99.62 nm  f=0.1423  <S**2>=0.000
       9 -> 14        -0.26917
      10 -> 15        -0.12392
      10 -> 16         0.16305
      11 -> 15         0.10421
      11 -> 16        -0.37915
      11 -> 17        -0.10190
      12 -> 19         0.39870
      13 -> 21         0.14097

 Excited State  19:      Singlet-A     12.5734 eV   98.61 nm  f=0.0728  <S**2>=0.000
       9 -> 14         0.27663
      10 -> 15         0.16643
      10 -> 16        -0.26805
      11 -> 16         0.12615
      12 -> 19         0.48420
      12 -> 20         0.10529

 Excited State  20:      Singlet-A     12.6959 eV   97.66 nm  f=0.0503  <S**2>=0.000
       8 -> 14         0.13847
       9 -> 14         0.37904
      10 -> 16         0.48050
      10 -> 17        -0.14932
      10 -> 18         0.12923
      11 -> 18         0.12240

 Excited State  21:      Singlet-A     12.7390 eV   97.33 nm  f=0.1042  <S**2>=0.000
       8 -> 14         0.23207
      10 -> 16        -0.14256
      11 -> 17         0.55606
      13 -> 21         0.23005

 Excited State  22:      Singlet-A     12.8510 eV   96.48 nm  f=0.0282  <S**2>=0.000
      10 -> 17         0.25024
      11 -> 17        -0.25317
      12 -> 19        -0.11153
      13 -> 21         0.55288

 Excited State  23:      Singlet-A     13.1204 eV   94.50 nm  f=0.1075  <S**2>=0.000
      10 -> 16        -0.13495
      10 -> 18         0.20062
      11 -> 17        -0.11474
      11 -> 18         0.57347
      12 -> 18        -0.17424
      12 -> 20         0.10612

 Excited State  24:      Singlet-A     13.1432 eV   94.33 nm  f=0.2150  <S**2>=0.000
       8 -> 14        -0.24974
      10 -> 16         0.26354
      10 -> 17         0.48748
      10 -> 18        -0.14684
      11 -> 17         0.23794

 Excited State  25:      Singlet-A     13.2483 eV   93.59 nm  f=0.0788  <S**2>=0.000
       8 -> 14         0.15751
      10 -> 18        -0.13798
      10 -> 19        -0.10139
      11 -> 19        -0.10148
      12 -> 20         0.59178

 Excited State  26:      Singlet-A     13.3109 eV   93.15 nm  f=0.0523  <S**2>=0.000
       8 -> 14         0.47664
       9 -> 15        -0.12982
      10 -> 17         0.30756
      11 -> 15         0.11356
      11 -> 16         0.12516
      11 -> 17        -0.11161
      13 -> 21        -0.25219

 Excited State  27:      Singlet-A     13.4415 eV   92.24 nm  f=0.2051  <S**2>=0.000
       9 -> 15         0.20334
      10 -> 17         0.12811
      10 -> 18         0.50015
      11 -> 17         0.13005
      11 -> 18        -0.17094
      11 -> 19         0.28593
      12 -> 19        -0.10805
      12 -> 20         0.14640

 Excited State  28:      Singlet-A     13.6441 eV   90.87 nm  f=0.0500  <S**2>=0.000
       9 -> 15         0.58894
      10 -> 18        -0.22893
      10 -> 19         0.23072

 Excited State  29:      Singlet-A     13.6964 eV   90.52 nm  f=0.1252  <S**2>=0.000
       8 -> 14         0.13095
       8 -> 15         0.14547
       9 -> 17        -0.11338
      10 -> 17        -0.10670
      10 -> 18        -0.21567
      10 -> 19        -0.37192
      11 -> 18         0.12367
      11 -> 19         0.43485

 Excited State  30:      Singlet-A     14.0482 eV   88.26 nm  f=0.0041  <S**2>=0.000
       9 -> 15        -0.17148
       9 -> 16         0.40865
       9 -> 17        -0.10521
      10 -> 19         0.37514
      11 -> 19         0.31608

 The electronic state is 1-A.
 Alpha  occ. eigenvalues --  -19.19770 -10.29873 -10.25024  -1.08904  -0.82510
 Alpha  occ. eigenvalues --   -0.69545  -0.56524  -0.51938  -0.49567  -0.44466
 Alpha  occ. eigenvalues --   -0.43112  -0.38108  -0.32669
 Alpha virt. eigenvalues --    0.09790   0.13614   0.15517   0.17177   0.18374
 Alpha virt. eigenvalues --    0.20510   0.26454   0.29044   0.47268   0.49163
 Alpha virt. eigenvalues --    0.52954   0.56227   0.60187   0.63736   0.67603

 Mulliken charges:
               1
     1  C   -0.055232
     2  C    0.110375
     3  O   -0.280793
     4  H    0.015479
     5  H    0.011236
     6  H    0.031762
     7  H    0.002918
     8  H    0.026157
     9  H    0.138098
 Sum of Mulliken charges =   0.00000

 Dipole moment (field-independent basis, Debye):
    X=             -1.0767    Y=             -0.1918    Z=              1.1217  Tot=              1.5666
 Quadrupole moment (field-independent basis, Debye-Ang):
   XX=            -22.1170   YY=            -18.3976   ZZ=            -19.0761
   XY=             -0.9479   XZ=              1.7149   YZ=             -1.4159

 Normal termination of Gaussian 16 at Mon Mar  7 19:41:13 2022.
