 Gaussian 16, Revision A.03,
 Gaussian 16:  ES64L-G16RevA.03 25-Dec-2016

 -------------------------------------------------
 #p opt freq b3lyp/cc-pvdz geom=connectivity polar
 -------------------------------------------------

 ---------
 Water.xyz
 ---------
 Symbolic Z-matrix:
 Charge =  0 Multiplicity = 1

 SCF Done:  E(RB3LYP) =  -76.4205866263     A.U. after    9 cycles
 SCF Done:  E(RB3LYP) =  -76.4206260538     A.U. after    6 cycles
 SCF Done:  E(RB3LYP) =  -76.4206270699     A.U. after    6 cycles
 Optimization completed.
    -- Stationary point found.
 Normal termination of Gaussian 16 at Thu Dec 16 11:32:23 2021.

 -------------------------------------------------------------------
 #P Geom=AllCheck Guess=TCheck SCRF=Check GenChk RB3LYP/CC-pVDZ Freq
 -------------------------------------------------------------------

 Structure from the checkpoint file:  "DFT_Water_gaus.chk"
 ---------
 Water.xyz
 ---------
 Charge =  0 Multiplicity = 1

                         Standard orientation:
 ---------------------------------------------------------------------
 Center     Atomic      Atomic             Coordinates (Angstroms)
 Number     Number       Type             X           Y           Z
 ---------------------------------------------------------------------
      1          8           0        0.000000    0.120937   -0.000000
      2          1           0        0.756641   -0.483746    0.000000
      3          1           0       -0.756641   -0.483746   -0.000000
 ---------------------------------------------------------------------

 SCF Done:  E(RB3LYP) =  -76.4206270699     A.U. after    1 cycles

 The electronic state is 1-A'.
 Alpha  occ. eigenvalues --  -19.12470  -0.99194  -0.50687  -0.36743  -0.28775
 Alpha virt. eigenvalues --    0.04924   0.12520   0.54972   0.61164   0.90385
 Alpha virt. eigenvalues --    0.91813   0.99615   1.19068   1.23637   1.41656
 Alpha virt. eigenvalues --    1.59092   1.66983   2.09018   2.13176   2.92071

 Mulliken charges:
               1
     1  O   -0.262588
     2  H    0.131294
     3  H    0.131294
 Sum of Mulliken charges =   0.00000

 Dipole moment (field-independent basis, Debye):
    X=              0.0000    Y=             -1.9379    Z=              0.0000  Tot=              1.9379
 Quadrupole moment (field-independent basis, Debye-Ang):
   XX=             -4.3339   YY=             -5.8771   ZZ=             -6.9999
   XY=              0.0000   XZ=             -0.0000   YZ=              0.0000

  Exact polarizability:   7.404   0.000   5.590   0.000  -0.000   3.203
 Approx polarizability:   9.090   0.000   7.049   0.000  -0.000   3.395

                      1                      2                      3
                     A'                     A'                     A'
 Frequencies --   1658.6901              3752.2137              3853.6375
 Red. masses --      1.0820                 1.0458                 1.0801
 Frc consts  --      1.7539                 8.6751                 9.4505
 IR Inten    --     55.7652                 2.9222                20.0360

 - Thermochemistry -
 -------------------
 Temperature   298.150 Kelvin.  Pressure   1.00000 Atm.
 Atom     1 has atomic number  8 and mass  15.99491

 Molecular mass:    18.01056 amu.
 Principal axes and moments of inertia in atomic units:
                           1         2         3
     Eigenvalues --     2.33735   4.12090   6.45825
           X            1.00000  -0.00000   0.00000
           Y            0.00000   1.00000   0.00000
           Z            0.00000  -0.00000   1.00000
 This molecule is an asymmetric top.
 Rotational symmetry number  1.
 Rotational temperatures (Kelvin)     37.05653    21.01818    13.41136
 Rotational constants (GHZ):         772.13285   437.94782   279.44740
 Zero-point vibrational energy      55414.3 (Joules/Mol)
                                   13.24433 (Kcal/Mol)
 Vibrational temperatures:   2386.49  5398.60  5544.52
          (Kelvin)

 Zero-point correction=                           0.021106 (Hartree/Particle)
 Thermal correction to Energy=                    0.023941
 Thermal correction to Enthalpy=                  0.024885
 Thermal correction to Gibbs Free Energy=         0.002782
 Sum of electronic and zero-point Energies=            -76.399521
 Sum of electronic and thermal Energies=               -76.396686
 Sum of electronic and thermal Enthalpies=             -76.395742
 Sum of electronic and thermal Free Energies=          -76.417845

                     E (Thermal)             CV                S
                      KCal/Mol        Cal/Mol-Kelvin    Cal/Mol-Kelvin
 Total                   15.023              6.004             46.521
 Electronic               0.000              0.000              0.000
 Translational            0.889              2.981             34.608
 Rotational               0.889              2.981             11.907
 Vibrational             13.246              0.043              0.006

 Optimization completed.
    -- Stationary point found.
 Normal termination of Gaussian 16 at Thu Dec 16 11:32:27 2021.
