 Gaussian 16, Revision A.03,
 Gaussian 16:  ES64L-G16RevA.03 25-Dec-2016

 ------------------------------------------------
 # opt=Cartesian freq hf/sto-3g geom=connectivity
 ------------------------------------------------

 -------------------
 Title Card Required
 -------------------
 Symbolic Z-matrix:
 Charge =  0 Multiplicity = 1

 SCF Done:  E(RHF) =  -224.804844838     A.U. after   12 cycles
 SCF Done:  E(RHF) =  -224.809331807     A.U. after   12 cycles
 SCF Done:  E(RHF) =  -224.810162193     A.U. after   11 cycles
 SCF Done:  E(RHF) =  -224.810198132     A.U. after   10 cycles
 SCF Done:  E(RHF) =  -224.810201774     A.U. after    9 cycles
 Optimization completed.
    -- Stationary point found.
 Normal termination of Gaussian 16 at Fri Sep  3 20:01:13 2021.

 ---------------------------------------------------------------
 #N Geom=AllCheck Guess=TCheck SCRF=Check GenChk RHF/STO-3G Freq
 ---------------------------------------------------------------

 Structure from the checkpoint file:  "eddike.chk"
 -------------------
 Title Card Required
 -------------------
 Charge =  0 Multiplicity = 1

                         Standard orientation:
 ---------------------------------------------------------------------
 Center     Atomic      Atomic             Coordinates (Angstroms)
 Number     Number       Type             X           Y           Z
 ---------------------------------------------------------------------
      1          6           0       -0.089084    0.135016   -0.000007
      2          8           0       -0.638805    1.219901   -0.000051
      3          8           0       -0.812262   -1.053970   -0.000003
      4          1           0       -1.760330   -0.769241   -0.000040
      5          6           0        1.424553   -0.129482    0.000052
      6          1           0        1.697574   -0.702494    0.881675
      7          1           0        1.697634   -0.702545   -0.881519
      8          1           0        1.960847    0.813626    0.000044
 ---------------------------------------------------------------------

 SCF Done:  E(RHF) =  -224.810201774     A.U. after    1 cycles

 The electronic state is 1-A.
 Alpha  occ. eigenvalues --  -20.30022 -20.26045 -11.17199 -11.06543  -1.37368
 Alpha  occ. eigenvalues --   -1.27168  -0.96443  -0.72551  -0.60587  -0.58431
 Alpha  occ. eigenvalues --   -0.58251  -0.52396  -0.48903  -0.45855  -0.35436
 Alpha  occ. eigenvalues --   -0.34343
 Alpha virt. eigenvalues --    0.30475   0.55293   0.63685   0.66228   0.70683
 Alpha virt. eigenvalues --    0.71724   0.75284   0.99351

 Mulliken charges:
               1
     1  C    0.315807
     2  O   -0.269217
     3  O   -0.294318
     4  H    0.202547
     5  C   -0.206881
     6  H    0.084314
     7  H    0.084314
     8  H    0.083434
 Sum of Mulliken charges =   0.00000

 Dipole moment (field-independent basis, Debye):
    X=              0.3968    Y=             -0.6958    Z=              0.0000  Tot=              0.8010
 Quadrupole moment (field-independent basis, Debye-Ang):
   XX=            -18.3875   YY=            -25.9428   ZZ=            -20.7473
   XY=              1.2469   XZ=              0.0000   YZ=              0.0002

  Exact polarizability:  17.839  -0.872  16.901   0.000  -0.000   7.653
 Approx polarizability:  13.472  -2.953  19.811   0.000  -0.000   6.116

                      1                      2                      3
                      A                      A                      A
 Frequencies --    102.3526               417.9655               550.8052
 Red. masses --      1.0777                 3.1215                 1.2629
 Frc consts  --      0.0067                 0.3213                 0.2257
 IR Inten    --      0.0492                 2.4967                41.8455
 Raman Activ --      0.0300                 0.1291                 7.3988

                      4                      5                      6
                      A                      A                      A
 Frequencies --    586.8122               622.3882               968.5369
 Red. masses --      4.7530                 2.4037                 4.1864
 Frc consts  --      0.9643                 0.5486                 2.3138
 IR Inten    --     40.2890                59.1753                 0.5782
 Raman Activ --      2.9635                 0.9499                 8.6775

                      7                      8                      9
                      A                      A                      A
 Frequencies --   1166.0122              1228.5143              1447.0770
 Red. masses --      1.5175                 1.5017                 2.6536
 Frc consts  --      1.2156                 1.3354                 3.2739
 IR Inten    --     14.8212                 7.1798               142.0492
 Raman Activ --      2.0615                 0.6208                 4.9875

                     10                     11                     12
                      A                      A                      A
 Frequencies --   1635.1587              1708.3895              1794.5802
 Red. masses --      1.4296                 1.4620                 1.0488
 Frc consts  --      2.2520                 2.5140                 1.9901
 IR Inten    --     13.9114                17.1233                 3.4269
 Raman Activ --      6.0145                 3.9348                16.0849

                     13                     14                     15
                      A                      A                      A
 Frequencies --   1797.3559              2142.8668              3574.3389
 Red. masses --      1.0570                 9.0529                 1.0379
 Frc consts  --      2.0118                24.4923                 7.8127
 IR Inten    --      6.9695                96.6962                 1.2312
 Raman Activ --     17.8214                 4.9835                42.2883

                     16                     17                     18
                      A                      A                      A
 Frequencies --   3751.1886              3770.2947              4249.2928
 Red. masses --      1.1075                 1.1104                 1.0666
 Frc consts  --      9.1822                 9.3003                11.3476
 IR Inten    --      0.8458                 0.9208                 8.5145
 Raman Activ --     31.9044                28.7553                60.5550

 - Thermochemistry -
 -------------------
 Temperature   298.150 Kelvin.  Pressure   1.00000 Atm.
 Atom     1 has atomic number  6 and mass  12.00000

 Molecular mass:    60.02113 amu.
 Principal axes and moments of inertia in atomic units:
                           1         2         3
     Eigenvalues --   163.41989 198.95453 351.18564
           X            0.99883   0.04832  -0.00003
           Y           -0.04832   0.99883   0.00002
           Z            0.00004  -0.00002   1.00000
 This molecule is an asymmetric top.
 Rotational symmetry number  1.
 Rotational temperatures (Kelvin)      0.53001     0.43535     0.24663
 Rotational constants (GHZ):          11.04358     9.07112     5.13899
 Zero-point vibrational energy     188495.2 (Joules/Mol)
                                   45.05142 (Kcal/Mol)
 Warning -- explicit consideration of   4 degrees of freedom as
           vibrations may cause significant error
 Vibrational temperatures:    147.26   601.36   792.49   844.29   895.48
          (Kelvin)           1393.51  1677.63  1767.56  2082.02  2352.63
                             2457.99  2582.00  2585.99  3083.11  5142.68
                             5397.12  5424.61  6113.78

 Zero-point correction=                           0.071794 (Hartree/Particle)
 Thermal correction to Energy=                    0.076243
 Thermal correction to Enthalpy=                  0.077188
 Thermal correction to Gibbs Free Energy=         0.044828
 Sum of electronic and zero-point Energies=           -224.738408
 Sum of electronic and thermal Energies=              -224.733958
 Sum of electronic and thermal Enthalpies=            -224.733014
 Sum of electronic and thermal Free Energies=         -224.765374

                     E (Thermal)             CV                S
                      KCal/Mol        Cal/Mol-Kelvin    Cal/Mol-Kelvin
 Total                   47.843             13.581             68.106
 Electronic               0.000              0.000              0.000
 Translational            0.889              2.981             38.196
 Rotational               0.889              2.981             23.950
 Vibrational             46.066              7.619              5.960
 Vibration     1          0.604              1.947              3.409
 Vibration     2          0.781              1.431              0.899
 Vibration     3          0.906              1.138              0.543
 Vibration     4          0.944              1.060              0.473

 Optimization completed.
    -- Stationary point found.
 Normal termination of Gaussian 16 at Fri Sep  3 20:01:23 2021.
