                         Program Version 5.0.1 -  RELEASE  -
|  1> ! PAL2
|  2> ! B3LYP cc-pVDZ VeryTightSCF
|  3> % TDDFT NROOTS    10
|  4>         TRIPLETS TRUE
|  5> end
|  6> %maxcore 4000
|  7> * xyz 0 1
|  8> C  1.011100  0.077080  -0.059530
|  9> C  2.525690  0.079850  -0.066400
| 10> O  3.005810  1.243650  -0.723650
| 11> H  0.625160  -0.805710  0.457800
| 12> H  0.619370  0.085560  -1.081990
| 13> H  0.626450  0.974410  0.436200
| 14> H  2.917510  -0.801850  -0.582510
| 15> H  2.913160  0.081420  0.956540
| 16> H  2.664530  1.228020  -1.634070
| 17> *
| 18>
| 19>
| 20>                          ****END OF INPUT****

CARTESIAN COORDINATES (ANGSTROEM)
---------------------------------
  C      1.011100    0.077080   -0.059530
  C      2.525690    0.079850   -0.066400
  O      3.005810    1.243650   -0.723650
  H      0.625160   -0.805710    0.457800
  H      0.619370    0.085560   -1.081990
  H      0.626450    0.974410    0.436200
  H      2.917510   -0.801850   -0.582510
  H      2.913160    0.081420    0.956540
  H      2.664530    1.228020   -1.634070

 Total Charge           Charge          ....    0
 Multiplicity           Mult            ....    1
 Number of Electrons    NEL             ....   26
 Basis Dimension        Dim             ....   72

ORBITAL ENERGIES
----------------

  NO   OCC          E(Eh)            E(eV)
   0   2.0000     -19.122449      -520.3483
   1   2.0000     -10.222743      -278.1750
   2   2.0000     -10.174664      -276.8667
   3   2.0000      -1.006679       -27.3931
   4   2.0000      -0.741991       -20.1906
   5   2.0000      -0.617214       -16.7952
   6   2.0000      -0.492839       -13.4108
   7   2.0000      -0.448239       -12.1972
   8   2.0000      -0.424500       -11.5512
   9   2.0000      -0.377352       -10.2683
  10   2.0000      -0.364117        -9.9081
  11   2.0000      -0.314887        -8.5685
  12   2.0000      -0.258420        -7.0320
  13   0.0000       0.054823         1.4918
  14   0.0000       0.092303         2.5117
  15   0.0000       0.111384         3.0309
  16   0.0000       0.126599         3.4449
  17   0.0000       0.138987         3.7820

MULLIKEN ATOMIC CHARGES
-----------------------
   0 C :   -0.038366
   1 C :    0.125245
   2 O :   -0.279340
   3 H :    0.008706
   4 H :    0.006217
   5 H :    0.025564
   6 H :   -0.002848
   7 H :    0.020486
   8 H :    0.134335
Sum of atomic charges:   -0.0000000

LOEWDIN ATOMIC CHARGES
----------------------
   0 C :   -0.081600
   1 C :   -0.026835
   2 O :   -0.038832
   3 H :    0.026818
   4 H :    0.020075
   5 H :    0.027862
   6 H :    0.006666
   7 H :    0.023961
   8 H :    0.041887

  Mayer bond orders larger than 0.100000
B(  0-C ,  1-C ) :   1.1047 B(  0-C ,  3-H ) :   0.9566 B(  0-C ,  4-H ) :   0.9680
B(  0-C ,  5-H ) :   0.9678 B(  1-C ,  2-O ) :   1.0719 B(  1-C ,  6-H ) :   0.9514
B(  1-C ,  7-H ) :   0.9551 B(  2-O ,  8-H ) :   1.0074

-----------------------------------------------------------------------------
         ABSORPTION SPECTRUM VIA TRANSITION ELECTRIC DIPOLE MOMENTS
-----------------------------------------------------------------------------
State   Energy    Wavelength  fosc         T2        TX        TY        TZ
        (cm-1)      (nm)                 (au**2)    (au)      (au)      (au)
-----------------------------------------------------------------------------
   1   57716.9    173.3   0.006543622   0.03732  -0.15482  -0.10905   0.03826
   2   67872.8    147.3   0.014015375   0.06798  -0.11297  -0.21774   0.08836
   3   71434.0    140.0   0.012451245   0.05738   0.18370   0.06156   0.14088
   4   72529.3    137.9   0.038290463   0.17380   0.35964  -0.19102  -0.08929
   5   75550.7    132.4   0.068809064   0.29984   0.27639  -0.44270  -0.16569
   6   79218.8    126.2   0.032946535   0.13692   0.21648   0.24840  -0.16837
   7   80307.6    124.5   0.023405602   0.09595  -0.13670   0.01958  -0.27727
   8   82759.2    120.8   0.046680976   0.18569   0.03063  -0.18756   0.38675
   9   82975.0    120.5   0.009061842   0.03595   0.10783   0.09171  -0.12616
  10   84903.1    117.8   0.071338142   0.27661   0.23797   0.27551   0.37958
  11   53998.8    185.2   spin forbidden (mult=3)
  12   65270.0    153.2   spin forbidden (mult=3)
  13   67151.8    148.9   spin forbidden (mult=3)
  14   70818.1    141.2   spin forbidden (mult=3)
  15   72332.1    138.3   spin forbidden (mult=3)
  16   75930.7    131.7   spin forbidden (mult=3)
  17   77083.6    129.7   spin forbidden (mult=3)
  18   79483.1    125.8   spin forbidden (mult=3)
  19   81379.3    122.9   spin forbidden (mult=3)
  20   81634.6    122.5   spin forbidden (mult=3)

FINAL SINGLE POINT ENERGY      -154.684154856413

DIPOLE MOMENT
-------------
                                X             Y             Z
Electronic contribution:      2.24408       1.63626      -0.67542
Nuclear contribution   :     -2.60599      -2.02942       0.41327
                        -----------------------------------------
Total Dipole Moment    :     -0.36191      -0.39317      -0.26215
                        -----------------------------------------
Magnitude (a.u.)       :      0.59522
Magnitude (Debye)      :      1.51293

Rotational constants in cm-1:     1.110425     0.318100     0.277453
Rotational constants in MHz : 33289.695292  9536.394195  8317.829729

                             ****ORCA TERMINATED NORMALLY****
TOTAL RUN TIME: 0 days 0 hours 0 minutes 12 seconds 495 msec
