 Gaussian 16, Revision A.03,
 Gaussian 16:  ES64L-G16RevA.03 25-Dec-2016

 --------------------------------------------------------
 # td=(nstates=30) wb97xd cc-pvdz scf=(qc,maxcycles=1000)
 --------------------------------------------------------

 ------------
 ./ethene.xyz
 ------------
 Symbolic Z-matrix:
 Charge =  0 Multiplicity = 1

                         Standard orientation:
 ---------------------------------------------------------------------
 Center     Atomic      Atomic             Coordinates (Angstroms)
 Number     Number       Type             X           Y           Z
 ---------------------------------------------------------------------
      1          1           0        0.000000    0.923270    1.238290
      2          1           0       -0.000000   -0.923270    1.238290
      3          1           0        0.000000    0.923270   -1.238290
      4          1           0       -0.000000   -0.923270   -1.238290
      5          6           0        0.000000    0.000000    0.668190
      6          6           0        0.000000    0.000000   -0.668190
 ---------------------------------------------------------------------

 SCF Done:  E(RwB97XD) =  -78.5606504977     a.u. after    6 cycles

 Excitation energies and oscillator strengths:

 Excited State   1:      Singlet-B1U    8.0810 eV  153.43 nm  f=0.3858  <S**2>=0.000
       8 ->  9         0.70269
 This state for optimization and/or second-order correction.
 Total Energy, E(TD-HF/TD-DFT) =  -78.2636788945
 Copying the excited state density for this state as the 1-particle RhoCI density.

 Excited State   2:      Singlet-B1G    8.3266 eV  148.90 nm  f=0.0000  <S**2>=0.000
       7 ->  9         0.70271

 Excited State   3:      Singlet-B3U    8.9242 eV  138.93 nm  f=0.0222  <S**2>=0.000
       8 -> 10         0.70613

 Excited State   4:      Singlet-B1G    9.4434 eV  131.29 nm  f=0.0000  <S**2>=0.000
       8 -> 11         0.70149

 Excited State   5:      Singlet-B2G    9.6894 eV  127.96 nm  f=0.0000  <S**2>=0.000
       6 ->  9         0.67417
       8 -> 12        -0.20709

 Excited State   6:      Singlet-B2G   10.0868 eV  122.92 nm  f=0.0000  <S**2>=0.000
       6 ->  9         0.20498
       8 -> 12         0.67521

 Excited State   7:      Singlet-B3G   11.2665 eV  110.05 nm  f=0.0000  <S**2>=0.000
       7 -> 10         0.70089

 Excited State   8:      Singlet-AU    11.3585 eV  109.16 nm  f=0.0000  <S**2>=0.000
       5 ->  9         0.69923
       8 -> 13         0.10089

 Excited State   9:      Singlet-AU    12.0436 eV  102.95 nm  f=0.0000  <S**2>=0.000
       5 ->  9        -0.10111
       8 -> 13         0.69838

 Excited State  10:      Singlet-B1U   12.2038 eV  101.59 nm  f=0.3825  <S**2>=0.000
       7 -> 11         0.70261

 Excited State  11:      Singlet-B2U   12.4172 eV   99.85 nm  f=0.4738  <S**2>=0.000
       5 -> 10         0.12140
       7 -> 12         0.69449

 Excited State  12:      Singlet-AG    13.2748 eV   93.40 nm  f=0.0000  <S**2>=0.000
       6 -> 10         0.69689

 Excited State  13:      Singlet-B2U   13.6831 eV   90.61 nm  f=0.1851  <S**2>=0.000
       6 -> 11         0.69682

 Excited State  14:      Singlet-B1U   14.0822 eV   88.04 nm  f=0.3385  <S**2>=0.000
       6 -> 12         0.70134

 Excited State  15:      Singlet-B2G   14.6488 eV   84.64 nm  f=0.0000  <S**2>=0.000
       8 -> 14         0.70561

 Excited State  16:      Singlet-B2U   14.6727 eV   84.50 nm  f=0.3257  <S**2>=0.000
       5 -> 10         0.69276
       7 -> 12        -0.12298

 Excited State  17:      Singlet-AG    14.8276 eV   83.62 nm  f=0.0000  <S**2>=0.000
       7 -> 13         0.67978
       8 -> 17         0.12342

 Excited State  18:      Singlet-B3U   15.4740 eV   80.12 nm  f=0.1174  <S**2>=0.000
       4 ->  9         0.68903
       8 -> 18         0.12862

 Excited State  19:      Singlet-B3G   15.5439 eV   79.76 nm  f=0.0000  <S**2>=0.000
       5 -> 12         0.65974
       6 -> 13        -0.22893

 Excited State  20:      Singlet-AG    15.5931 eV   79.51 nm  f=0.0000  <S**2>=0.000
       5 -> 11         0.68111
       7 -> 13        -0.12397
       8 -> 17         0.10430

 Excited State  21:      Singlet-B3G   15.9493 eV   77.74 nm  f=0.0000  <S**2>=0.000
       4 -> 11         0.15216
       5 -> 12         0.23159
       6 -> 13         0.64858

 Excited State  22:      Singlet-B3U   17.1481 eV   72.30 nm  f=0.0142  <S**2>=0.000
       8 -> 15         0.70205

 Excited State  23:      Singlet-B2U   17.4686 eV   70.98 nm  f=0.3341  <S**2>=0.000
       7 -> 14         0.69187

 Excited State  24:      Singlet-B1G   17.6341 eV   70.31 nm  f=0.0000  <S**2>=0.000
       8 -> 16         0.70574

 Excited State  25:      Singlet-B1U   17.7975 eV   69.66 nm  f=0.0244  <S**2>=0.000
       4 -> 10         0.28930
       5 -> 13         0.64016

 Excited State  26:      Singlet-B1U   18.1555 eV   68.29 nm  f=0.0800  <S**2>=0.000
       4 -> 10         0.59072
       5 -> 13        -0.24808
       6 -> 14         0.26826

 Excited State  27:      Singlet-B3G   18.4668 eV   67.14 nm  f=0.0000  <S**2>=0.000
       4 -> 11         0.68542
       6 -> 13        -0.15597

 Excited State  28:      Singlet-AG    18.7430 eV   66.15 nm  f=0.0000  <S**2>=0.000
       4 -> 12         0.57326
       6 -> 15        -0.10935
       8 -> 17        -0.39059

 Excited State  29:      Singlet-B1U   19.2591 eV   64.38 nm  f=0.2882  <S**2>=0.000
       4 -> 10        -0.21426
       5 -> 13         0.10222
       6 -> 14         0.60441
       7 -> 16         0.21066
       8 -> 20        -0.16188

 Excited State  30:      Singlet-B3G   19.5550 eV   63.40 nm  f=0.0000  <S**2>=0.000
       5 -> 14        -0.25189
       7 -> 15         0.64767
       7 -> 18         0.10580

 The electronic state is 1-AG.
 Alpha  occ. eigenvalues --  -10.29854 -10.29773  -0.85804  -0.67192  -0.55391
 Alpha  occ. eigenvalues --   -0.50222  -0.43561  -0.35283
 Alpha virt. eigenvalues --    0.08435   0.16616   0.18905   0.19883   0.27301
 Alpha virt. eigenvalues --    0.39389   0.49372   0.51078   0.56740   0.58522
 Alpha virt. eigenvalues --    0.64184   0.66278   0.73537   0.77281   0.81793

 Mulliken charges:
               1
     1  H    0.045535
     2  H    0.045535
     3  H    0.045535
     4  H    0.045535
     5  C   -0.091069
     6  C   -0.091069
 Sum of Mulliken charges =  -0.00000

 Dipole moment (field-independent basis, Debye):
    X=             -0.0000    Y=              0.0000    Z=             -0.0000  Tot=              0.0000
 Quadrupole moment (field-independent basis, Debye-Ang):
   XX=            -15.1620   YY=            -12.1790   ZZ=            -12.0343
   XY=              0.0000   XZ=             -0.0000   YZ=              0.0000

 Normal termination of Gaussian 16 at Thu Mar  4 10:51:03 2021.
