 Gaussian 16, Revision A.03,
 Gaussian 16:  ES64L-G16RevA.03 25-Dec-2016

 ----------------------------------------------
 #p opt freq hf/cc-pvdz geom=connectivity polar
 ----------------------------------------------

 -----------
 Ethanol.xyz
 -----------
 Symbolic Z-matrix:
 Charge =  0 Multiplicity = 1

 SCF Done:  E(RHF) =  -154.090952449     A.U. after   12 cycles
 SCF Done:  E(RHF) =  -154.092554676     A.U. after   10 cycles
 SCF Done:  E(RHF) =  -154.092708647     A.U. after    9 cycles
 SCF Done:  E(RHF) =  -154.092717817     A.U. after    9 cycles
 SCF Done:  E(RHF) =  -154.092718669     A.U. after    8 cycles
 SCF Done:  E(RHF) =  -154.092719050     A.U. after    8 cycles
 SCF Done:  E(RHF) =  -154.092719327     A.U. after    8 cycles
 Optimization completed.
    -- Stationary point found.
 Normal termination of Gaussian 16 at Thu Dec 16 11:32:35 2021.

 ----------------------------------------------------------------
 #P Geom=AllCheck Guess=TCheck SCRF=Check GenChk RHF/CC-pVDZ Freq
 ----------------------------------------------------------------

 Structure from the checkpoint file:  "HF_Ethanol_gaus.chk"
 -----------
 Ethanol.xyz
 -----------
 Charge =  0 Multiplicity = 1

                         Standard orientation:
 ---------------------------------------------------------------------
 Center     Atomic      Atomic             Coordinates (Angstroms)
 Number     Number       Type             X           Y           Z
 ---------------------------------------------------------------------
      1          6           0       -1.207283   -0.236286   -0.019786
      2          6           0        0.090277    0.550887    0.044877
      3          8           0        1.222964   -0.261036   -0.108584
      4          1           0       -2.070083    0.430472    0.053111
      5          1           0       -1.271504   -0.955774    0.802586
      6          1           0       -1.271877   -0.789346   -0.958861
      7          1           0        0.141178    1.117319    0.982379
      8          1           0        0.129273    1.275499   -0.768590
      9          1           0        1.261337   -0.877490    0.607504
 ---------------------------------------------------------------------

 SCF Done:  E(RHF) =  -154.092719327     A.U. after    1 cycles

 The electronic state is 1-A.
 Alpha  occ. eigenvalues --  -20.54660 -11.27442 -11.22262  -1.36162  -1.01033
 Alpha  occ. eigenvalues --   -0.84721  -0.68709  -0.62207  -0.60388  -0.54148
 Alpha  occ. eigenvalues --   -0.52314  -0.47473  -0.43487
 Alpha virt. eigenvalues --    0.18014   0.22058   0.23505   0.25480   0.26660
 Alpha virt. eigenvalues --    0.28697   0.38879   0.40417   0.59820   0.61952
 Alpha virt. eigenvalues --    0.66357   0.73193   0.75511   0.80883   0.85279

 Mulliken charges:
               1
     1  C   -0.082988
     2  C    0.171494
     3  O   -0.369789
     4  H    0.027180
     5  H    0.020248
     6  H    0.041751
     7  H    0.010062
     8  H    0.033087
     9  H    0.148954
 Sum of Mulliken charges =  -0.00000

 Dipole moment (field-independent basis, Debye):
    X=             -1.1438    Y=             -0.1476    Z=              1.2321  Tot=              1.6877
 Quadrupole moment (field-independent basis, Debye-Ang):
   XX=            -22.2095   YY=            -18.5421   ZZ=            -19.0090
   XY=             -1.0320   XZ=              1.8909   YZ=             -1.4274

  Exact polarizability:  26.741  -0.551  26.378   0.286  -0.906  25.010
 Approx polarizability:  21.685  -0.970  22.429  -0.174  -0.955  22.173

                      1                      2                      3
                      A                      A                      A
 Frequencies --    286.0495               328.9224               451.6318
 Red. masses --      1.0736                 1.1211                 2.7227
 Frc consts  --      0.0518                 0.0715                 0.3272
 IR Inten    --     12.2388               119.8011                14.3801
 Raman Activ --      0.3130                 2.4177                 0.6761

                      4                      5                      6
                      A                      A                      A
 Frequencies --    860.1473               960.0848              1141.2608
 Red. masses --      1.0822                 2.1488                 1.5638
 Frc consts  --      0.4717                 1.1670                 1.2001
 IR Inten    --      1.9008                 9.8727                 7.5373
 Raman Activ --      0.1001                 8.9661                 5.1039

                      7                      8                      9
                      A                      A                      A
 Frequencies --   1191.5679              1230.5210              1379.5202
 Red. masses --      1.8967                 2.2698                 1.2869
 Frc consts  --      1.5866                 2.0249                 1.4430
 IR Inten    --    104.1592                34.9366                13.6877
 Raman Activ --      3.0878                 4.2926                 2.4524

                     10                     11                     12
                      A                      A                      A
 Frequencies --   1483.7970              1507.8725              1550.4164
 Red. masses --      1.2104                 1.2122                 1.3504
 Frc consts  --      1.5702                 1.6238                 1.9126
 IR Inten    --      3.6515                12.2475                60.8499
 Raman Activ --      5.5074                 3.4253                 4.1269

                     13                     14                     15
                      A                      A                      A
 Frequencies --   1583.9401              1593.9871              1626.8359
 Red. masses --      1.0509                 1.0631                 1.0953
 Frc consts  --      1.5534                 1.5914                 1.7080
 IR Inten    --      7.2761                 1.4446                 0.4748
 Raman Activ --      9.8925                17.6285                 3.7070

                     16                     17                     18
                      A                      A                      A
 Frequencies --   3152.3911              3170.3275              3227.6751
 Red. masses --      1.0681                 1.0435                 1.0972
 Frc consts  --      6.2536                 6.1797                 6.7347
 IR Inten    --     86.5624                21.6619                 7.5965
 Raman Activ --     72.3156               190.3096               132.1419

                     19                     20                     21
                      A                      A                      A
 Frequencies --   3251.8662              3262.3335              4142.3560
 Red. masses --      1.0977                 1.1040                 1.0667
 Frc consts  --      6.8391                 6.9228                10.7847
 IR Inten    --     74.3115                59.2820                43.3623
 Raman Activ --     64.2687                44.0871                59.7318

 - Thermochemistry -
 -------------------
 Temperature   298.150 Kelvin.  Pressure   1.00000 Atm.
 Atom     1 has atomic number  6 and mass  12.00000

 Molecular mass:    46.04186 amu.
 Principal axes and moments of inertia in atomic units:
                           1         2         3
     Eigenvalues --    51.82584 193.68917 219.16874
           X            0.99975   0.01435   0.01729
           Y           -0.01339   0.99843  -0.05435
           Z           -0.01805   0.05411   0.99837
 This molecule is an asymmetric top.
 Rotational symmetry number  1.
 Rotational temperatures (Kelvin)      1.67125     0.44718     0.39519
 Rotational constants (GHZ):          34.82319     9.31772     8.23448
 Zero-point vibrational energy     223603.0 (Joules/Mol)
                                   53.44240 (Kcal/Mol)
 Warning -- explicit consideration of   3 degrees of freedom as
           vibrations may cause significant error
 Vibrational temperatures:    411.56   473.25   649.80  1237.56  1381.35
          (Kelvin)           1642.02  1714.40  1770.45  1984.82  2134.85
                             2169.49  2230.70  2278.94  2293.39  2340.65
                             4535.59  4561.39  4643.90  4678.71  4693.77
                             5959.93

 Zero-point correction=                           0.085166 (Hartree/Particle)
 Thermal correction to Energy=                    0.089275
 Thermal correction to Enthalpy=                  0.090219
 Thermal correction to Gibbs Free Energy=         0.059927
 Sum of electronic and zero-point Energies=           -154.007553
 Sum of electronic and thermal Energies=              -154.003445
 Sum of electronic and thermal Enthalpies=            -154.002500
 Sum of electronic and thermal Free Energies=         -154.032792

                     E (Thermal)             CV                S
                      KCal/Mol        Cal/Mol-Kelvin    Cal/Mol-Kelvin
 Total                   56.021             12.745             63.754
 Electronic               0.000              0.000              0.000
 Translational            0.889              2.981             37.406
 Rotational               0.889              2.981             22.313
 Vibrational             54.243              6.783              4.035
 Vibration     1          0.684              1.700              1.497
 Vibration     2          0.712              1.618              1.265
 Vibration     3          0.810              1.357              0.791

 Optimization completed.
    -- Stationary point found.
 Normal termination of Gaussian 16 at Thu Dec 16 11:32:42 2021.
