 Gaussian 16, Revision A.03,
 Gaussian 16:  ES64L-G16RevA.03 25-Dec-2016

 ----------------------------------------------
 #p opt freq hf/cc-pvdz geom=connectivity polar
 ----------------------------------------------

 -----------
 Methane.xyz
 -----------
 Symbolic Z-matrix:
 Charge =  0 Multiplicity = 1

 SCF Done:  E(RHF) =  -40.1987065304     A.U. after    8 cycles
 SCF Done:  E(RHF) =  -40.1987119220     A.U. after    6 cycles
 Optimization completed.
    -- Stationary point found.
 Normal termination of Gaussian 16 at Thu Dec 16 11:32:20 2021.

 ----------------------------------------------------------------
 #P Geom=AllCheck Guess=TCheck SCRF=Check GenChk RHF/CC-pVDZ Freq
 ----------------------------------------------------------------

 Structure from the checkpoint file:  "HF_Methane_gaus.chk"
 -----------
 Methane.xyz
 -----------
 Charge =  0 Multiplicity = 1

                         Standard orientation:
 ---------------------------------------------------------------------
 Center     Atomic      Atomic             Coordinates (Angstroms)
 Number     Number       Type             X           Y           Z
 ---------------------------------------------------------------------
      1          6           0        0.000000    0.000000   -0.000000
      2          1           0       -0.617143    0.686406   -0.580932
      3          1           0       -0.345139   -0.012406    1.034517
      4          1           0        1.039273    0.329165   -0.032598
      5          1           0       -0.076992   -1.003166   -0.420986
 ---------------------------------------------------------------------

 SCF Done:  E(RHF) =  -40.1987119220     A.U. after    1 cycles

 The electronic state is 1-A.
 Alpha  occ. eigenvalues --  -11.21651  -0.94174  -0.54240  -0.54240  -0.54240
 Alpha virt. eigenvalues --    0.19294   0.27392   0.27392   0.27392   0.58950
 Alpha virt. eigenvalues --    0.58950   0.58950   0.88883   0.88883   0.88883
 Alpha virt. eigenvalues --    0.93289   1.13144   1.13144   1.25632   1.68535

 Mulliken charges:
               1
     1  C   -0.143320
     2  H    0.035830
     3  H    0.035830
     4  H    0.035830
     5  H    0.035830
 Sum of Mulliken charges =   0.00000

 Dipole moment (field-independent basis, Debye):
    X=             -0.0000    Y=             -0.0000    Z=              0.0000  Tot=              0.0000
 Quadrupole moment (field-independent basis, Debye-Ang):
   XX=             -8.3587   YY=             -8.3587   ZZ=             -8.3587
   XY=             -0.0000   XZ=              0.0000   YZ=              0.0000

  Exact polarizability:  13.004  -0.000  13.004  -0.000  -0.000  13.004
 Approx polarizability:  10.552  -0.000  10.552  -0.000   0.000  10.552

                      1                      2                      3
                      A                      A                      A
 Frequencies --   1432.9799              1432.9802              1432.9805
 Red. masses --      1.1781                 1.1781                 1.1781
 Frc consts  --      1.4253                 1.4253                 1.4253
 IR Inten    --      9.9095                 9.9095                 9.9094
 Raman Activ --      0.8505                 0.8505                 0.8505

                      4                      5                      6
                      A                      A                      A
 Frequencies --   1647.7765              1647.7767              3166.0483
 Red. masses --      1.0078                 1.0078                 1.0078
 Frc consts  --      1.6122                 1.6122                 5.9521
 IR Inten    --      0.0000                 0.0000                 0.0000
 Raman Activ --     20.4822                20.4822               164.5168

                      7                      8                      9
                      A                      A                      A
 Frequencies --   3286.9590              3286.9605              3286.9619
 Red. masses --      1.1025                 1.1025                 1.1025
 Frc consts  --      7.0178                 7.0178                 7.0178
 IR Inten    --     34.3736                34.3738                34.3737
 Raman Activ --     73.2371                73.2373                73.2373

 - Thermochemistry -
 -------------------
 Temperature   298.150 Kelvin.  Pressure   1.00000 Atm.
 Atom     1 has atomic number  6 and mass  12.00000

 Molecular mass:    16.03130 amu.
 Principal axes and moments of inertia in atomic units:
                           1         2         3
     Eigenvalues --    11.41605  11.41606  11.41607
           X            1.00000  -0.00000   0.00000
           Y            0.00000   1.00000   0.00000
           Z           -0.00000  -0.00000   1.00000
 This molecule is an asymmetric top.
 Rotational symmetry number  1.
 Rotational temperatures (Kelvin)      7.58703     7.58702     7.58702
 Rotational constants (GHZ):         158.08805   158.08787   158.08782
 Zero-point vibrational energy     123343.5 (Joules/Mol)
                                   29.47980 (Kcal/Mol)
 Vibrational temperatures:   2061.74  2061.74  2061.74  2370.78  2370.78
          (Kelvin)           4555.24  4729.20  4729.20  4729.20

 Zero-point correction=                           0.046979 (Hartree/Particle)
 Thermal correction to Energy=                    0.049836
 Thermal correction to Enthalpy=                  0.050781
 Thermal correction to Gibbs Free Energy=         0.027318
 Sum of electronic and zero-point Energies=            -40.151733
 Sum of electronic and thermal Energies=               -40.148876
 Sum of electronic and thermal Enthalpies=             -40.147931
 Sum of electronic and thermal Free Energies=          -40.171394

                     E (Thermal)             CV                S
                      KCal/Mol        Cal/Mol-Kelvin    Cal/Mol-Kelvin
 Total                   31.273              6.334             49.382
 Electronic               0.000              0.000              0.000
 Translational            0.889              2.981             34.261
 Rotational               0.889              2.981             15.061
 Vibrational             29.495              0.372              0.059

 Optimization completed.
    -- Stationary point found.
 Normal termination of Gaussian 16 at Thu Dec 16 11:32:26 2021.
