 Gaussian 16, Revision A.03,
 Gaussian 16:  ES64L-G16RevA.03 25-Dec-2016

 ----------------------------------------------
 #p opt freq hf/cc-pvdz geom=connectivity polar
 ----------------------------------------------

 ---------
 Water.xyz
 ---------
 Symbolic Z-matrix:
 Charge =  0 Multiplicity = 1

 SCF Done:  E(RHF) =  -76.0259883706     A.U. after   10 cycles
 SCF Done:  E(RHF) =  -76.0270300999     A.U. after    9 cycles
 SCF Done:  E(RHF) =  -76.0270532879     A.U. after    8 cycles
 Optimization completed.
    -- Stationary point found.
 Normal termination of Gaussian 16 at Thu Dec 16 11:32:17 2021.

 ----------------------------------------------------------------
 #P Geom=AllCheck Guess=TCheck SCRF=Check GenChk RHF/CC-pVDZ Freq
 ----------------------------------------------------------------

 Structure from the checkpoint file:  "HF_Water_gaus.chk"
 ---------
 Water.xyz
 ---------
 Charge =  0 Multiplicity = 1

                         Standard orientation:
 ---------------------------------------------------------------------
 Center     Atomic      Atomic             Coordinates (Angstroms)
 Number     Number       Type             X           Y           Z
 ---------------------------------------------------------------------
      1          8           0        0.000000    0.115591   -0.000000
      2          1           0        0.749187   -0.462365    0.000000
      3          1           0       -0.749187   -0.462365   -0.000000
 ---------------------------------------------------------------------

 SCF Done:  E(RHF) =  -76.0270532879     A.U. after    1 cycles

 The electronic state is 1-A'.
 Alpha  occ. eigenvalues --  -20.54837  -1.34224  -0.70564  -0.56823  -0.49390
 Alpha virt. eigenvalues --    0.18744   0.25781   0.79804   0.86404   1.16256
 Alpha virt. eigenvalues --    1.20042   1.25251   1.44468   1.47858   1.67803
 Alpha virt. eigenvalues --    1.86547   1.94613   2.47984   2.51820   3.29447

 Mulliken charges:
               1
     1  O   -0.292333
     2  H    0.146167
     3  H    0.146167
 Sum of Mulliken charges =  -0.00000

 Dipole moment (field-independent basis, Debye):
    X=              0.0000    Y=             -2.0428    Z=              0.0000  Tot=              2.0428
 Quadrupole moment (field-independent basis, Debye-Ang):
   XX=             -4.1368   YY=             -5.8864   ZZ=             -7.0082
   XY=              0.0000   XZ=              0.0000   YZ=              0.0000

  Exact polarizability:   6.694   0.000   4.974   0.000  -0.000   3.044
 Approx polarizability:   5.472   0.000   4.221   0.000  -0.000   2.493

                      1                      2                      3
                     A'                     A'                     A'
 Frequencies --   1774.5674              4114.4003              4213.5029
 Red. masses --      1.0818                 1.0460                 1.0821
 Frc consts  --      2.0071                10.4328                11.3185
 IR Inten    --     80.8644                21.1749                60.8692
 Raman Activ --      4.7822                68.8759                34.7224

 - Thermochemistry -
 -------------------
 Temperature   298.150 Kelvin.  Pressure   1.00000 Atm.
 Atom     1 has atomic number  8 and mass  15.99491

 Molecular mass:    18.01056 amu.
 Principal axes and moments of inertia in atomic units:
                           1         2         3
     Eigenvalues --     2.13530   4.04011   6.17541
           X            1.00000  -0.00000  -0.00000
           Y            0.00000   1.00000   0.00000
           Z            0.00000  -0.00000   1.00000
 This molecule is an asymmetric top.
 Rotational symmetry number  1.
 Rotational temperatures (Kelvin)     40.56295    21.43848    14.02561
 Rotational constants (GHZ):         845.19462   446.70548   292.24633
 Zero-point vibrational energy      60426.2 (Joules/Mol)
                                   14.44221 (Kcal/Mol)
 Vibrational temperatures:   2553.21  5919.70  6062.29
          (Kelvin)

 Zero-point correction=                           0.023015 (Hartree/Particle)
 Thermal correction to Energy=                    0.025849
 Thermal correction to Enthalpy=                  0.026793
 Thermal correction to Gibbs Free Energy=         0.004764
 Sum of electronic and zero-point Energies=            -76.004038
 Sum of electronic and thermal Energies=               -76.001204
 Sum of electronic and thermal Enthalpies=             -76.000260
 Sum of electronic and thermal Free Energies=          -76.022289

                     E (Thermal)             CV                S
                      KCal/Mol        Cal/Mol-Kelvin    Cal/Mol-Kelvin
 Total                   16.221              5.989             46.365
 Electronic               0.000              0.000              0.000
 Translational            0.889              2.981             34.608
 Rotational               0.889              2.981             11.753
 Vibrational             14.443              0.028              0.004

 Optimization completed.
    -- Stationary point found.
 Normal termination of Gaussian 16 at Thu Dec 16 11:32:22 2021.
