 Gaussian 16, Revision A.03,
 Gaussian 16:  ES64L-G16RevA.03 25-Dec-2016

 ----------------------------------------------------------------------
 # opt freq 6-311+g(d) scrf=(iefpcm,solvent=acetonitrile) geom=connecti
 vity m062x
 ----------------------------------------------------------------------

 -------------------
 DHA in acetonitrile
 -------------------
 Symbolic Z-matrix:
 Charge =  0 Multiplicity = 1

 SCF Done:  E(RM062X) =  -802.424641342     A.U. after   16 cycles
 SCF Done:  E(RM062X) =  -802.425084620     A.U. after   13 cycles
 SCF Done:  E(RM062X) =  -802.425168955     A.U. after   13 cycles
 SCF Done:  E(RM062X) =  -802.425202713     A.U. after   13 cycles
 SCF Done:  E(RM062X) =  -802.425212275     A.U. after   12 cycles
 SCF Done:  E(RM062X) =  -802.425214140     A.U. after   11 cycles
 SCF Done:  E(RM062X) =  -802.425214361     A.U. after   10 cycles
 Optimization completed.
    -- Stationary point found.

 1\1\GINC-NODE345\FOpt\RM062X\6-311+G(d)\C18H12N2\THEOB\12-Feb-2021\0\\
 # opt freq 6-311+g(d) scrf=(iefpcm,solvent=acetonitrile) geom=connecti
 vity m062x\\DHA in acetonitrile\\0,1\C,-4.5724601311,-0.3231825763,-0.
 2236858875\C,-4.1167114869,-1.3260729795,0.5695737757\C,-2.7603610038,
 -1.8255122573,0.6029256685\C,-3.7890822732,0.4058474879,-1.2052812291\
 C,-1.6718735583,-1.0682151713,0.3596830278\C,-2.4854466082,0.707177699
 6,-1.1017286746\C,-1.7444532252,0.4296826899,0.1790491106\H,-5.6425228
 287,-0.1386201707,-0.2288024452\H,-4.8515099366,-1.8831896139,1.143090

 Normal termination of Gaussian 16 at Fri Feb 12 12:34:38 2021.

 ----------------------------------------------------------------------
 #N Geom=AllCheck Guess=TCheck SCRF=Check GenChk RM062X/6-311+G(d) Freq
 ----------------------------------------------------------------------

 Structure from the checkpoint file:  "m062x_parent-DHA_an.chk"
 -------------------
 DHA in acetonitrile
 -------------------
 Charge =  0 Multiplicity = 1

                         Standard orientation:
 ---------------------------------------------------------------------
 Center     Atomic      Atomic             Coordinates (Angstroms)
 Number     Number       Type             X           Y           Z
 ---------------------------------------------------------------------
      1          6           0       -4.574371   -0.305068   -0.248813
      2          6           0       -4.122870   -1.318882    0.532906
      3          6           0       -2.767704   -1.821704    0.563439
      4          6           0       -3.786861    0.434538   -1.219126
      5          6           0       -1.676939   -1.063813    0.332558
      6          6           0       -2.482844    0.731652   -1.108438
      7          6           0       -1.745782    0.436399    0.170637
      8          1           0       -5.644011   -0.118087   -0.254349
      9          1           0       -4.860367   -1.881553    1.097466
     10          1           0       -2.630836   -2.877709    0.778694
     11          1           0       -1.962732    1.202245   -1.936293
     12          6           0       -0.294761   -1.485967    0.241544
     13          1           0       -0.000314   -2.527867    0.269627
     14          6           0        0.559938   -0.453773    0.136558
     15          6           0       -0.231088    0.872401    0.224383
     16          1           0       -2.289207    0.887333    1.006503
     17          6           0        0.147953    1.802626   -0.851642
     18          6           0        0.034768    1.525360    1.520847
     19          7           0        0.439736    2.508359   -1.708385
     20          7           0        0.218562    1.999677    2.550003
     21          1           0       -4.308085    0.753094   -2.117473
     22          6           0        2.019353   -0.493264   -0.011383
     23          6           0        2.643324   -1.677077   -0.435277
     24          6           0        2.821237    0.623518    0.257951
     25          6           0        4.022499   -1.744923   -0.564487
     26          1           0        2.043751   -2.545233   -0.683524
     27          6           0        4.204216    0.553182    0.125290
     28          1           0        2.383836    1.559585    0.586123
     29          6           0        4.810261   -0.629553   -0.282987
     30          1           0        4.484367   -2.667659   -0.896065
     31          1           0        4.805962    1.427786    0.343060
     32          1           0        5.887568   -0.682108   -0.388854
 ---------------------------------------------------------------------

 SCF Done:  E(RM062X) =  -802.425214361     A.U. after    1 cycles

 The electronic state is 1-A.
 Alpha  occ. eigenvalues --  -14.78548 -14.78394 -10.66566 -10.61547 -10.61487
 Alpha  occ. eigenvalues --  -10.59746 -10.59646 -10.57848 -10.57837 -10.57611
 Alpha  occ. eigenvalues --  -10.56675 -10.56255 -10.56065 -10.56056 -10.55971
 Alpha  occ. eigenvalues --  -10.55904 -10.55697 -10.55641 -10.55639 -10.55584
 Alpha  occ. eigenvalues --   -1.06970  -1.04952  -1.01986  -0.98267  -0.94975
 Alpha  occ. eigenvalues --   -0.91134  -0.88908  -0.87355  -0.85952  -0.83861
 Alpha  occ. eigenvalues --   -0.77130  -0.74582  -0.71491  -0.70370  -0.68501
 Alpha  occ. eigenvalues --   -0.66711  -0.64015  -0.62563  -0.60142  -0.59224
 Alpha  occ. eigenvalues --   -0.56034  -0.55462  -0.53886  -0.53321  -0.52487
 Alpha  occ. eigenvalues --   -0.51477  -0.50366  -0.49366  -0.48662  -0.48292
 Alpha  occ. eigenvalues --   -0.47483  -0.47011  -0.46150  -0.45653  -0.44379
 Alpha  occ. eigenvalues --   -0.43613  -0.43246  -0.43185  -0.42517  -0.41850
 Alpha  occ. eigenvalues --   -0.40471  -0.39834  -0.38648  -0.33986  -0.32411
 Alpha  occ. eigenvalues --   -0.31362  -0.26894
 Alpha virt. eigenvalues --   -0.06058  -0.00922  -0.00057   0.00601   0.01471
 Alpha virt. eigenvalues --    0.01650   0.01911   0.02073   0.02547   0.02810
 Alpha virt. eigenvalues --    0.03268   0.03707   0.04083   0.04309   0.04473

 Mulliken charges:
               1
     1  C   -0.266049
     2  C   -0.459256
     3  C   -0.385460
     4  C   -0.759541
     5  C    0.110007
     6  C   -0.361143
     7  C    0.266809
     8  H    0.266717
     9  H    0.269311
    10  H    0.280943
    11  H    0.263807
    12  C   -0.463915
    13  H    0.303808
    14  C    0.809628
    15  C    1.172904
    16  H    0.315706
    17  C   -0.526563
    18  C   -0.698137
    19  N   -0.266977
    20  N   -0.269988
    21  H    0.271994
    22  C    0.914619
    23  C   -0.582714
    24  C    0.367165
    25  C   -0.630667
    26  H    0.284950
    27  C   -0.942456
    28  H    0.258122
    29  C   -0.372023
    30  H    0.276788
    31  H    0.275854
    32  H    0.275757
 Sum of Mulliken charges =  -0.00000

 Dipole moment (field-independent basis, Debye):
    X=             -1.6983    Y=             -5.8767    Z=             -1.0193  Tot=              6.2015
 Quadrupole moment (field-independent basis, Debye-Ang):
   XX=            -89.7934   YY=           -117.3179   ZZ=           -133.5615
   XY=             -2.3383   XZ=             -0.5315   YZ=             -1.3445

  Exact polarizability: 448.892  34.309 271.630  -7.088  -8.714 210.281
 Approx polarizability: 369.445  32.468 266.569  -8.325  -8.843 211.338

                      1                      2                      3
                      A                      A                      A
 Frequencies --     29.8033                51.9156                69.0300
 Red. masses --      4.4124                 4.8042                 5.0877
 Frc consts  --      0.0023                 0.0076                 0.0143
 IR Inten    --      0.4622                 1.0778                 0.2957

                      4                      5                      6
                      A                      A                      A
 Frequencies --     85.3634               112.8797               131.0332
 Red. masses --      5.9824                 9.0912                 7.9959
 Frc consts  --      0.0257                 0.0682                 0.0809
 IR Inten    --      1.9091                 6.4852                 7.8623

                      7                      8                      9
                      A                      A                      A
 Frequencies --    140.3554               180.9166               195.3143
 Red. masses --     10.4704                 5.5186                 4.6461
 Frc consts  --      0.1215                 0.1064                 0.1044
 IR Inten    --     10.6510                 1.3439                 2.6289

                     10                     11                     12
                      A                      A                      A
 Frequencies --    232.5146               266.3587               303.8689
 Red. masses --      4.3438                 6.6616                 3.7516
 Frc consts  --      0.1384                 0.2785                 0.2041
 IR Inten    --      0.5549                 1.7257                 1.2223

                     13                     14                     15
                      A                      A                      A
 Frequencies --    331.2288               369.9024               375.8248
 Red. masses --      5.0268                 3.7159                 4.6557
 Frc consts  --      0.3249                 0.2996                 0.3874
 IR Inten    --      3.6319                 0.2878                22.2599

                     16                     17                     18
                      A                      A                      A
 Frequencies --    409.8797               416.2769               420.0177
 Red. masses --      3.0776                 4.8968                 5.7626
 Frc consts  --      0.3046                 0.4999                 0.5990
 IR Inten    --      0.1638                 5.6813                13.1589

                     19                     20                     21
                      A                      A                      A
 Frequencies --    472.5052               494.6078               520.7845
 Red. masses --      6.5391                 4.4333                 8.7184
 Frc consts  --      0.8602                 0.6390                 1.3932
 IR Inten    --      4.8620                 6.5868                 0.2563

                     22                     23                     24
                      A                      A                      A
 Frequencies --    551.0110               596.4023               607.0664
 Red. masses --      5.5738                 3.3587                 3.2168
 Frc consts  --      0.9971                 0.7039                 0.6985
 IR Inten    --      3.4526                 6.5907                18.0178

                     25                     26                     27
                      A                      A                      A
 Frequencies --    610.3089               626.6878               646.8241
 Red. masses --     11.1474                 6.3124                 4.5591
 Frc consts  --      2.4464                 1.4607                 1.1238
 IR Inten    --      1.7108                 1.3800                 4.7223

                     28                     29                     30
                      A                      A                      A
 Frequencies --    659.5697               687.4972               704.7343
 Red. masses --      5.8200                 4.4325                 1.8288
 Frc consts  --      1.4917                 1.2343                 0.5351
 IR Inten    --      5.9244                11.0525                68.9162

                     31                     32                     33
                      A                      A                      A
 Frequencies --    721.6900               782.6938               785.9289
 Red. masses --      1.4760                 2.0854                 1.8528
 Frc consts  --      0.4529                 0.7527                 0.6743
 IR Inten    --    125.6447                77.0048                27.1237

                     34                     35                     36
                      A                      A                      A
 Frequencies --    823.5735               853.3802               863.6031
 Red. masses --      2.5396                 3.1188                 1.3140
 Frc consts  --      1.0149                 1.3382                 0.5774
 IR Inten    --     23.8794                 4.1224                 0.4718

                     37                     38                     39
                      A                      A                      A
 Frequencies --    900.0592               923.3667               939.2636
 Red. masses --      1.7044                 3.6153                 3.1812
 Frc consts  --      0.8135                 1.8161                 1.6535
 IR Inten    --      1.7883                10.4818                14.4865

                     40                     41                     42
                      A                      A                      A
 Frequencies --    944.8781               953.8496               971.4044
 Red. masses --      1.6699                 1.6757                 2.7285
 Frc consts  --      0.8784                 0.8982                 1.5170
 IR Inten    --     27.7100                 4.1252                 5.2094

                     43                     44                     45
                      A                      A                      A
 Frequencies --    997.1329              1006.2981              1015.8613
 Red. masses --      1.4663                 1.3846                 5.5006
 Frc consts  --      0.8590                 0.8261                 3.3445
 IR Inten    --      0.2314                 0.0978                 2.9186

                     46                     47                     48
                      A                      A                      A
 Frequencies --   1023.0671              1026.1472              1030.3034
 Red. masses --      2.0843                 1.7482                 1.3321
 Frc consts  --      1.2853                 1.0846                 0.8331
 IR Inten    --      7.2242                 6.4853                 0.7506

                     49                     50                     51
                      A                      A                      A
 Frequencies --   1061.6199              1071.3363              1083.9996
 Red. masses --      3.0759                 2.5795                 2.1687
 Frc consts  --      2.0425                 1.7444                 1.5015
 IR Inten    --     11.2847                 4.1615                 2.4369

                     52                     53                     54
                      A                      A                      A
 Frequencies --   1116.3571              1126.6221              1150.7193
 Red. masses --      3.4489                 1.7250                 3.6474
 Frc consts  --      2.5324                 1.2901                 2.8456
 IR Inten    --      4.1241                 8.0182                22.8479

                     55                     56                     57
                      A                      A                      A
 Frequencies --   1182.1551              1215.1896              1225.9086
 Red. masses --      1.1360                 1.3895                 1.1964
 Frc consts  --      0.9353                 1.2089                 1.0593
 IR Inten    --      0.0213                 8.4337                 1.1573

                     58                     59                     60
                      A                      A                      A
 Frequencies --   1246.6272              1248.4323              1265.0359
 Red. masses --      1.1951                 1.1245                 1.4385
 Frc consts  --      1.0943                 1.0326                 1.3563
 IR Inten    --      3.0084                 5.7325                 5.5277

                     61                     62                     63
                      A                      A                      A
 Frequencies --   1301.6292              1311.9633              1332.2099
 Red. masses --      3.0545                 4.2856                 1.5991
 Frc consts  --      3.0491                 4.3462                 1.6721
 IR Inten    --      3.2624                15.0239                 3.0568

                     64                     65                     66
                      A                      A                      A
 Frequencies --   1346.4228              1372.2501              1375.2227
 Red. masses --      2.6061                 1.4723                 1.5438
 Frc consts  --      2.7836                 1.6334                 1.7202
 IR Inten    --      1.6701                 0.8520                 6.1438

                     67                     68                     69
                      A                      A                      A
 Frequencies --   1424.2732              1480.8548              1491.0598
 Red. masses --      1.4893                 1.7948                 2.3158
 Frc consts  --      1.7800                 2.3189                 3.0335
 IR Inten    --     16.5492                 0.4010                14.7329

                     70                     71                     72
                      A                      A                      A
 Frequencies --   1546.2099              1615.4927              1645.7079
 Red. masses --      2.2553                 7.7401                 5.3916
 Frc consts  --      3.1769                11.9017                 8.6035
 IR Inten    --     14.8451                 2.9009                 2.1133

                     73                     74                     75
                      A                      A                      A
 Frequencies --   1673.7283              1682.3510              1702.4939
 Red. masses --      5.7524                 7.9870                 6.5281
 Frc consts  --      9.4945                13.3189                11.1483
 IR Inten    --      0.8030                 1.7044                 4.3945

                     76                     77                     78
                      A                      A                      A
 Frequencies --   1718.3917              2413.3590              2419.4946
 Red. masses --      6.7368                12.7079                12.7024
 Frc consts  --     11.7206                43.6082                43.8111
 IR Inten    --      4.9771                23.3500                20.6654

                     79                     80                     81
                      A                      A                      A
 Frequencies --   3081.8047              3183.9722              3189.9014
 Red. masses --      1.0850                 1.0850                 1.0875
 Frc consts  --      6.0716                 6.4808                 6.5195
 IR Inten    --      5.4496                 3.2970                 5.9932

                     82                     83                     84
                      A                      A                      A
 Frequencies --   3197.2604              3207.0558              3212.6204
 Red. masses --      1.0899                 1.0942                 1.0866
 Frc consts  --      6.5643                 6.6310                 6.6074
 IR Inten    --     16.0579                39.9768                 4.3039

                     85                     86                     87
                      A                      A                      A
 Frequencies --   3217.4058              3218.0796              3224.5180
 Red. masses --      1.0948                 1.0885                 1.0918
 Frc consts  --      6.6772                 6.6419                 6.6886
 IR Inten    --      8.7686                 0.3220                12.7901

                     88                     89                     90
                      A                      A                      A
 Frequencies --   3230.6359              3237.9863              3244.0772
 Red. masses --      1.0952                 1.0986                 1.0953
 Frc consts  --      6.7346                 6.7863                 6.7915
 IR Inten    --     24.3188                14.0431                 8.7123

 - Thermochemistry -
 -------------------
 Temperature   298.150 Kelvin.  Pressure   1.00000 Atm.
 Atom     1 has atomic number  6 and mass  12.00000

 Molecular mass:   256.10005 amu.
 Principal axes and moments of inertia in atomic units:
                           1         2         3
     Eigenvalues --  2481.067217846.240908660.94171
           X            1.00000  -0.00053   0.00002
           Y            0.00053   0.99996  -0.00925
           Z           -0.00002   0.00925   0.99996
 This molecule is an asymmetric top.
 Rotational symmetry number  1.
 Warning -- assumption of classical behavior for rotation
           may cause significant error
 Rotational temperatures (Kelvin)      0.03491     0.01104     0.01000
 Rotational constants (GHZ):           0.72741     0.23001     0.20838
 Zero-point vibrational energy     652894.4 (Joules/Mol)
                                  156.04551 (Kcal/Mol)
 Warning -- explicit consideration of  25 degrees of freedom as
           vibrations may cause significant error
 Vibrational temperatures:     42.88    74.70    99.32   122.82   162.41
          (Kelvin)            188.53   201.94   260.30   281.01   334.54
                              383.23   437.20   476.56   532.21   540.73
                              589.73   598.93   604.31   679.83   711.63
                              749.29   792.78   858.09   873.43   878.10
                              901.66   930.64   948.97   989.16  1013.96
                             1038.35  1126.12  1130.78  1184.94  1227.82
                             1242.53  1294.98  1328.52  1351.39  1359.47
                             1372.38  1397.63  1434.65  1447.84  1461.60
                             1471.97  1476.40  1482.38  1527.43  1541.41
                             1559.63  1606.19  1620.96  1655.63  1700.86
                             1748.39  1763.81  1793.62  1796.22  1820.10
                             1872.75  1887.62  1916.75  1937.20  1974.36
                             1978.64  2049.21  2130.62  2145.30  2224.65
                             2324.33  2367.81  2408.12  2420.53  2449.51
                             2472.38  3472.29  3481.11  4434.03  4581.03
                             4589.56  4600.14  4614.24  4622.24  4629.13
                             4630.10  4639.36  4648.16  4658.74  4667.50

 Zero-point correction=                           0.248674 (Hartree/Particle)
 Thermal correction to Energy=                    0.264585
 Thermal correction to Enthalpy=                  0.265530
 Thermal correction to Gibbs Free Energy=         0.204751
 Sum of electronic and zero-point Energies=           -802.176540
 Sum of electronic and thermal Energies=              -802.160629
 Sum of electronic and thermal Enthalpies=            -802.159685
 Sum of electronic and thermal Free Energies=         -802.220463

                     E (Thermal)             CV                S
                      KCal/Mol        Cal/Mol-Kelvin    Cal/Mol-Kelvin
 Total                  166.030             62.857            127.918
 Electronic               0.000              0.000              0.000
 Translational            0.889              2.981             42.521
 Rotational               0.889              2.981             33.488
 Vibrational            164.252             56.895             51.909
 Vibration     1          0.594              1.984              5.842
 Vibration     2          0.596              1.977              4.743
 Vibration     3          0.598              1.969              4.181
 Vibration     4          0.601              1.959              3.764
 Vibration     5          0.607              1.939              3.219
 Vibration     6          0.612              1.922              2.931
 Vibration     7          0.615              1.913              2.799
 Vibration     8          0.630              1.866              2.319
 Vibration     9          0.636              1.846              2.177
 Vibration    10          0.653              1.791              1.859
 Vibration    11          0.672              1.735              1.620
 Vibration    12          0.695              1.666              1.396
 Vibration    13          0.714              1.613              1.254
 Vibration    14          0.742              1.534              1.080
 Vibration    15          0.747              1.522              1.056
 Vibration    16          0.774              1.449              0.927
 Vibration    17          0.779              1.435              0.905
 Vibration    18          0.783              1.427              0.892
 Vibration    19          0.829              1.311              0.731
 Vibration    20          0.850              1.262              0.672
 Vibration    21          0.876              1.204              0.608
 Vibration    22          0.906              1.137              0.542
 Vibration    23          0.954              1.039              0.456
 Vibration    24          0.966              1.017              0.438
 Vibration    25          0.969              1.010              0.432

                           ! Non-Optimized Parameters !

 1\1\GINC-NODE345\Freq\RM062X\6-311+G(d)\C18H12N2\THEOB\12-Feb-2021\0\\
 #N Geom=AllCheck Guess=TCheck SCRF=Check GenChk RM062X/6-311+G(d) Freq
 \\DHA in acetonitrile\\0,1\C,-4.5724601311,-0.3231825763,-0.2236858875
 \C,-4.1167114869,-1.3260729795,0.5695737757\C,-2.7603610038,-1.8255122
 573,0.6029256685\C,-3.7890822732,0.4058474879,-1.2052812291\C,-1.67187
 35583,-1.0682151713,0.3596830278\C,-2.4854466082,0.7071776996,-1.10172
 86746\C,-1.7444532252,0.4296826899,0.1790491106\H,-5.6425228287,-0.138
 6201707,-0.2288024452\H,-4.8515099366,-1.8831896139,1.1430906327\H,-2.

 Normal termination of Gaussian 16 at Fri Feb 12 14:50:01 2021.
