                         Program Version 5.0.1 -  RELEASE  -
|  1> ! PAL2
|  2> ! cc-pVDZ CCSD VeryTightSCF NoFrozenCore
|  3> ! Opt Freq
|  4> %elprop dipole true
|  5> end
|  6> %maxcore 4000
|  7> * xyz 0 1
|  8> C  1.018250  0.093150  0.031470
|  9> H  2.110450  0.093150  0.031470
| 10> H  0.654190  -0.602800  0.790430
| 11> H  0.654180  -0.216150  -0.950710
| 12> H  0.654180  1.098400  0.254700
| 13> *
| 14>
| 15>
| 16>                          ****END OF INPUT****
 Total Charge           Charge          ....    0
 Multiplicity           Mult            ....    1
 Number of Electrons    NEL             ....   10
E(0)                                       ...    -40.198706530
E(0)                                       ...    -40.198706530
E(CORR)                                    ...     -0.187570952
E(TOT)                                     ...    -40.386277482
FINAL SINGLE POINT ENERGY       -40.386277481823
E(0)                                       ...    -40.198386233
E(0)                                       ...    -40.198386233
E(CORR)                                    ...     -0.188119612
E(TOT)                                     ...    -40.386505845
FINAL SINGLE POINT ENERGY       -40.386505844849
                    ***********************HURRAY********************

CARTESIAN COORDINATES (ANGSTROEM)
---------------------------------
  C      1.018245    0.093148    0.031474
  H      2.119842    0.093152    0.031469
  H      0.651060   -0.608784    0.796959
  H      0.651051   -0.218810   -0.959162
  H      0.651052    1.107044    0.256620

 Multiplicity           Mult            ....    1
 Number of Electrons    NEL             ....   10
 Basis Dimension        Dim             ....   34

ORBITAL ENERGIES
----------------

  NO   OCC          E(Eh)            E(eV)
   0   2.0000     -11.221544      -305.3537
   1   2.0000      -0.937234       -25.5034
   2   2.0000      -0.539668       -14.6851
   3   2.0000      -0.539666       -14.6850
   4   2.0000      -0.539664       -14.6850
   5   0.0000       0.191539         5.2121
   6   0.0000       0.272199         7.4069
   7   0.0000       0.272199         7.4069
   8   0.0000       0.272200         7.4069
   9   0.0000       0.590148        16.0587

E(0)                                       ...    -40.198399411
E(0)                                       ...    -40.198399411
E(CORR)                                    ...     -0.188106578
E(TOT)                                     ...    -40.386505988

MULLIKEN ATOMIC CHARGES
-----------------------
   0 C :   -0.179523
   1 H :    0.044880
   2 H :    0.044881
   3 H :    0.044881
   4 H :    0.044881
Sum of atomic charges:   -0.0000000

LOEWDIN ATOMIC CHARGES
----------------------
   0 C :   -0.119624
   1 H :    0.029906
   2 H :    0.029905
   3 H :    0.029906
   4 H :    0.029906

  Mayer bond orders larger than 0.100000
B(  0-C ,  1-H ) :   0.9446 B(  0-C ,  2-H ) :   0.9446 B(  0-C ,  3-H ) :   0.9446
B(  0-C ,  4-H ) :   0.9446

FINAL SINGLE POINT ENERGY       -40.386505988426

DIPOLE MOMENT
-------------
                                X             Y             Z
Electronic contribution:     -0.00001      -0.00001       0.00001
Nuclear contribution   :      0.00002       0.00001      -0.00001
                        -----------------------------------------
Total Dipole Moment    :      0.00000       0.00000      -0.00000
                        -----------------------------------------
Magnitude (a.u.)       :      0.00000
Magnitude (Debye)      :      0.00000

VIBRATIONAL FREQUENCIES
-----------------------

Scaling factor for frequencies =  1.000000000 (already applied!)

   0:         0.00 cm**-1
   1:         0.00 cm**-1
   2:         0.00 cm**-1
   3:         0.00 cm**-1
   4:         0.00 cm**-1
   5:         0.00 cm**-1
   6:      1343.51 cm**-1
   7:      1343.53 cm**-1
   8:      1343.54 cm**-1
   9:      1560.03 cm**-1
  10:      1560.06 cm**-1
  11:      3059.38 cm**-1
  12:      3193.21 cm**-1
  13:      3193.23 cm**-1
  14:      3193.24 cm**-1

IR SPECTRUM
-----------

 Mode   freq       eps      Int      T**2         TX        TY        TZ
       cm**-1   L/(mol*cm) km/mol    a.u.
----------------------------------------------------------------------------
  6:   1343.51   0.002191   11.07  0.000509  (-0.001279 -0.018113 -0.013383)
  7:   1343.53   0.002191   11.07  0.000509  ( 0.016275  0.008522 -0.013089)
  8:   1343.54   0.002191   11.07  0.000509  (-0.015566  0.010398 -0.012585)
  9:   1560.03   0.000000    0.00  0.000000  ( 0.000000  0.000000  0.000000)
 10:   1560.06   0.000000    0.00  0.000000  (-0.000001  0.000001 -0.000002)
 11:   3059.38   0.000000    0.00  0.000000  (-0.000002 -0.000001  0.000001)
 12:   3193.21   0.003729   18.84  0.000364  (-0.004019 -0.011863  0.014405)
 13:   3193.23   0.003729   18.84  0.000364  ( 0.001319  0.014518  0.012325)
 14:   3193.24   0.003729   18.85  0.000364  (-0.018616  0.003590 -0.002237)

--------------------------
THERMOCHEMISTRY AT 298.15K
--------------------------

Temperature         ... 298.15 K
Pressure            ... 1.00 atm
Total Mass          ... 16.04 AMU

Throughout the following assumptions are being made:
  (1) The electronic state is orbitally nondegenerate
  (2) There are no thermally accessible electronically excited states
  (3) Hindered rotations indicated by low frequency modes are not
      treated as such but are treated as vibrations and this may
      cause some error
  (4) All equations used are the standard statistical mechanics
      equations for an ideal gas
  (5) All vibrations are strictly harmonic

freq.    1343.51  E(vib)   ...       0.01
freq.    1343.53  E(vib)   ...       0.01
freq.    1343.54  E(vib)   ...       0.01
freq.    1560.03  E(vib)   ...       0.00
freq.    1560.06  E(vib)   ...       0.00
freq.    3059.38  E(vib)   ...       0.00
freq.    3193.21  E(vib)   ...       0.00
freq.    3193.23  E(vib)   ...       0.00
freq.    3193.24  E(vib)   ...       0.00

------------
INNER ENERGY
------------

The inner energy is: U= E(el) + E(ZPE) + E(vib) + E(rot) + E(trans)
    E(el)   - is the total energy from the electronic structure calculation
              = E(kin-el) + E(nuc-el) + E(el-el) + E(nuc-nuc)
    E(ZPE)  - the the zero temperature vibrational energy from the frequency calculation
    E(vib)  - the the finite temperature correction to E(ZPE) due to population
              of excited vibrational states
    E(rot)  - is the rotational thermal energy
    E(trans)- is the translational thermal energy

Summary of contributions to the inner energy U:
Electronic energy                ...    -40.38650599 Eh
Zero point energy                ...      0.04508433 Eh      28.29 kcal/mol
Thermal vibrational correction   ...      0.00003578 Eh       0.02 kcal/mol
Thermal rotational correction    ...      0.00141627 Eh       0.89 kcal/mol
Thermal translational correction ...      0.00141627 Eh       0.89 kcal/mol
-----------------------------------------------------------------------
Total thermal energy                    -40.33855334 Eh

Summary of corrections to the electronic energy:
(perhaps to be used in another calculation)
Total thermal correction                  0.00286833 Eh       1.80 kcal/mol
Non-thermal (ZPE) correction              0.04508433 Eh      28.29 kcal/mol
-----------------------------------------------------------------------
Total correction                          0.04795265 Eh      30.09 kcal/mol

--------
ENTHALPY
--------

The enthalpy is H = U + kB*T
                kB is Boltzmann's constant
Total free energy                 ...    -40.33855334 Eh
Thermal Enthalpy correction       ...      0.00094421 Eh       0.59 kcal/mol
-----------------------------------------------------------------------
Total Enthalpy                    ...    -40.33760913 Eh

Note: Rotational entropy computed according to Herzberg
Infrared and Raman Spectra, Chapter V,1, Van Nostrand Reinhold, 1945
Point Group:  Td, Symmetry Number:  12
Rotational constants in cm-1:     5.168049     5.168023     5.168015

Vibrational entropy computed according to the QRRHO of S. Grimme
Chem.Eur.J. 2012 18 9955

-------
ENTROPY
-------

The entropy contributions are T*S = T*(S(el)+S(vib)+S(rot)+S(trans))
     S(el)   - electronic entropy
     S(vib)  - vibrational entropy
     S(rot)  - rotational entropy
     S(trans)- translational entropy
The entropies will be listed as multiplied by the temperature to get
units of energy

Electronic entropy                ...      0.00000000 Eh      0.00 kcal/mol
Vibrational entropy               ...      0.00004114 Eh      0.03 kcal/mol
Rotational entropy                ...      0.00483840 Eh      3.04 kcal/mol
Translational entropy             ...      0.01627961 Eh     10.22 kcal/mol
-----------------------------------------------------------------------
Final entropy term                ...      0.02115915 Eh     13.28 kcal/mol

In case the symmetry of your molecule has not been determined correctly
or in case you have a reason to use a different symmetry number we print
out the resulting rotational entropy values for sn=1,12 :
 --------------------------------------------------------
|  sn= 1 | S(rot)=       0.00718460 Eh      4.51 kcal/mol|
|  sn= 2 | S(rot)=       0.00653014 Eh      4.10 kcal/mol|
|  sn= 3 | S(rot)=       0.00614731 Eh      3.86 kcal/mol|
|  sn= 4 | S(rot)=       0.00587568 Eh      3.69 kcal/mol|
|  sn= 5 | S(rot)=       0.00566500 Eh      3.55 kcal/mol|
|  sn= 6 | S(rot)=       0.00549285 Eh      3.45 kcal/mol|
|  sn= 7 | S(rot)=       0.00534731 Eh      3.36 kcal/mol|
|  sn= 8 | S(rot)=       0.00522123 Eh      3.28 kcal/mol|
|  sn= 9 | S(rot)=       0.00511002 Eh      3.21 kcal/mol|
|  sn=10 | S(rot)=       0.00501054 Eh      3.14 kcal/mol|
|  sn=11 | S(rot)=       0.00492055 Eh      3.09 kcal/mol|
|  sn=12 | S(rot)=       0.00483840 Eh      3.04 kcal/mol|
 --------------------------------------------------------

-------------------
GIBBS FREE ENERGY
-------------------

The Gibbs free energy is G = H - T*S

Total enthalpy                    ...    -40.33760913 Eh
Total entropy correction          ...     -0.02115915 Eh    -13.28 kcal/mol
-----------------------------------------------------------------------
Final Gibbs free energy         ...    -40.35876828 Eh

For completeness - the Gibbs free energy minus the electronic energy
G-E(el)                           ...      0.02773771 Eh     17.41 kcal/mol

                             ****ORCA TERMINATED NORMALLY****
TOTAL RUN TIME: 0 days 0 hours 24 minutes 45 seconds 484 msec
