                         Program Version 5.0.1 -  RELEASE  -
|  1> ! PAL2
|  2> ! B3LYP cc-pVDZ VeryTightSCF
|  3> % TDDFT NROOTS    10
|  4>         TRIPLETS TRUE
|  5> end
|  6> %maxcore 4000
|  7> * xyz 0 1
|  8> C  1.018250  0.093150  0.031470
|  9> H  2.110450  0.093150  0.031470
| 10> H  0.654190  -0.602800  0.790430
| 11> H  0.654180  -0.216150  -0.950710
| 12> H  0.654180  1.098400  0.254700
| 13> *
| 14>
| 15>
| 16>                          ****END OF INPUT****

CARTESIAN COORDINATES (ANGSTROEM)
---------------------------------
  C      1.018250    0.093150    0.031470
  H      2.110450    0.093150    0.031470
  H      0.654190   -0.602800    0.790430
  H      0.654180   -0.216150   -0.950710
  H      0.654180    1.098400    0.254700

 Total Charge           Charge          ....    0
 Multiplicity           Mult            ....    1
 Number of Electrons    NEL             ....   10
 Basis Dimension        Dim             ....   34

ORBITAL ENERGIES
----------------

  NO   OCC          E(Eh)            E(eV)
   0   2.0000     -10.167931      -276.6835
   1   2.0000      -0.689231       -18.7549
   2   2.0000      -0.386322       -10.5124
   3   2.0000      -0.386309       -10.5120
   4   2.0000      -0.386306       -10.5119
   5   0.0000       0.077239         2.1018
   6   0.0000       0.147424         4.0116
   7   0.0000       0.147426         4.0117
   8   0.0000       0.147428         4.0117
   9   0.0000       0.416520        11.3341

MULLIKEN ATOMIC CHARGES
-----------------------
   0 C :   -0.116381
   1 H :    0.029107
   2 H :    0.029115
   3 H :    0.029080
   4 H :    0.029079
Sum of atomic charges:   -0.0000000

LOEWDIN ATOMIC CHARGES
----------------------
   0 C :   -0.117452
   1 H :    0.029365
   2 H :    0.029362
   3 H :    0.029364
   4 H :    0.029362

  Mayer bond orders larger than 0.100000
B(  0-C ,  1-H ) :   0.9983 B(  0-C ,  2-H ) :   0.9982 B(  0-C ,  3-H ) :   0.9983
B(  0-C ,  4-H ) :   0.9983

-----------------------------------------------------------------------------
         ABSORPTION SPECTRUM VIA TRANSITION ELECTRIC DIPOLE MOMENTS
-----------------------------------------------------------------------------
State   Energy    Wavelength  fosc         T2        TX        TY        TZ
        (cm-1)      (nm)                 (au**2)    (au)      (au)      (au)
-----------------------------------------------------------------------------
   1   92294.0    108.3   0.168122337   0.59969  -0.01600   0.44591   0.63293
   2   92323.6    108.3   0.167189804   0.59617  -0.26159   0.59090  -0.42258
   3   92355.9    108.3   0.165864592   0.59124   0.72306   0.22253  -0.13748
   4  104479.2     95.7   0.000000363   0.00000   0.00054  -0.00027   0.00088
   5  104485.9     95.7   0.000000276   0.00000  -0.00048  -0.00076  -0.00025
   6  104500.9     95.7   0.000000036   0.00000  -0.00029   0.00015   0.00008
   7  105943.6     94.4   0.000000344   0.00000  -0.00002  -0.00032   0.00098
   8  105947.7     94.4   0.000005769   0.00002   0.00071  -0.00325   0.00262
   9  109582.4     91.3   0.526017428   1.58028  -0.07024  -0.80118  -0.96616
  10  109589.2     91.2   0.527201774   1.58374  -0.15852   0.96658  -0.79015
  11   85672.3    116.7   spin forbidden (mult=3)
  12   85693.9    116.7   spin forbidden (mult=3)
  13   85724.0    116.7   spin forbidden (mult=3)
  14   92998.6    107.5   spin forbidden (mult=3)
  15   98305.5    101.7   spin forbidden (mult=3)
  16   98307.0    101.7   spin forbidden (mult=3)
  17   98311.4    101.7   spin forbidden (mult=3)
  18  101594.2     98.4   spin forbidden (mult=3)
  19  101594.9     98.4   spin forbidden (mult=3)
  20  103204.1     96.9   spin forbidden (mult=3)

FINAL SINGLE POINT ENERGY       -40.059783184651

DIPOLE MOMENT
-------------
                                X             Y             Z
Electronic contribution:     -0.00002       0.00001      -0.00006
Nuclear contribution   :     -0.00000      -0.00000       0.00001
                        -----------------------------------------
Total Dipole Moment    :     -0.00002       0.00001      -0.00006
                        -----------------------------------------
Magnitude (a.u.)       :      0.00006
Magnitude (Debye)      :      0.00016

Rotational constants in cm-1:     5.257329     5.257298     5.257290
Rotational constants in MHz : 157610.754312 157609.814970 157609.576313

                             ****ORCA TERMINATED NORMALLY****
TOTAL RUN TIME: 0 days 0 hours 0 minutes 5 seconds 129 msec
