 Gaussian 16, Revision A.03,
 Gaussian 16:  ES64L-G16RevA.03 25-Dec-2016

 -----------------------------------------------
 #p opt freq mp2/cc-pvdz geom=connectivity polar
 -----------------------------------------------

 ---------
 Water.xyz
 ---------
 Symbolic Z-matrix:
 Charge =  0 Multiplicity = 1

 SCF Done:  E(RHF) =  -76.0259883706     A.U. after   10 cycles
 E2 =    -0.2025166801D+00 EUMP2 =    -0.76228505050669D+02
 SCF Done:  E(RHF) =  -76.0262631495     A.U. after    8 cycles
 E2 =    -0.2023982515D+00 EUMP2 =    -0.76228661401050D+02
 SCF Done:  E(RHF) =  -76.0262196149     A.U. after    7 cycles
 E2 =    -0.2024468848D+00 EUMP2 =    -0.76228666499713D+02
 Optimization completed.
    -- Stationary point found.
 Normal termination of Gaussian 16 at Thu Dec 16 11:32:22 2021.

 ---------------------------------------------------------------------
 #P Geom=AllCheck Guess=TCheck SCRF=Check GenChk RMP2(FC)/CC-pVDZ Freq
 ---------------------------------------------------------------------

 Structure from the checkpoint file:  "MP2_Water_gaus.chk"
 ---------
 Water.xyz
 ---------
 Charge =  0 Multiplicity = 1

                         Standard orientation:
 ---------------------------------------------------------------------
 Center     Atomic      Atomic             Coordinates (Angstroms)
 Number     Number       Type             X           Y           Z
 ---------------------------------------------------------------------
      1          8           0       -0.000000    0.121560    0.000000
      2          1           0        0.749342   -0.486238   -0.000000
      3          1           0       -0.749342   -0.486238   -0.000000
 ---------------------------------------------------------------------

 SCF Done:  E(RHF) =  -76.0262196149     A.U. after    1 cycles
 E2 =    -0.2024468848D+00 EUMP2 =    -0.76228666499723D+02
 E2 =    -0.2024468848D+00 EUMP2 =    -0.76228666499723D+02

 The electronic state is 1-A'.
 Alpha  occ. eigenvalues --  -20.55319  -1.33494  -0.69028  -0.57051  -0.49356
 Alpha virt. eigenvalues --    0.18374   0.25541   0.77532   0.85872   1.16639
 Alpha virt. eigenvalues --    1.19958   1.25653   1.42128   1.48305   1.65861
 Alpha virt. eigenvalues --    1.86342   1.94189   2.42881   2.47643   3.29220

 Mulliken charges:
               1
     1  O   -0.308810
     2  H    0.154405
     3  H    0.154405
 Sum of Mulliken charges =   0.00000

 Dipole moment (field-independent basis, Debye):
    X=              0.0000    Y=             -2.1027    Z=              0.0000  Tot=              2.1027
 Quadrupole moment (field-independent basis, Debye-Ang):
   XX=             -4.2206   YY=             -5.8180   ZZ=             -7.0484
   XY=              0.0000   XZ=              0.0000   YZ=              0.0000

  Exact polarizability:   7.046   0.000   5.443  -0.000  -0.000   3.165
 Approx polarizability:   5.645   0.000   4.514  -0.000  -0.000   2.494

                      1                      2                      3
                     A'                     A'                     A'
 Frequencies --   1677.6886              3852.1433              3971.4795
 Red. masses --      1.0810                 1.0467                 1.0793
 Frc consts  --      1.7927                 9.1514                10.0296
 IR Inten    --     56.9939                 6.5677                32.6622

 - Thermochemistry -
 -------------------
 Temperature   298.150 Kelvin.  Pressure   1.00000 Atm.
 Atom     1 has atomic number  8 and mass  15.99491

 Molecular mass:    18.01056 amu.
 Principal axes and moments of inertia in atomic units:
                           1         2         3
     Eigenvalues --     2.36149   4.04179   6.40328
           X            1.00000  -0.00000   0.00000
           Y            0.00000   1.00000   0.00000
           Z            0.00000  -0.00000   1.00000
 This molecule is an asymmetric top.
 Rotational symmetry number  1.
 Rotational temperatures (Kelvin)     36.67769    21.42961    13.52650
 Rotational constants (GHZ):         764.23898   446.52050   281.84654
 Zero-point vibrational energy      56830.5 (Joules/Mol)
                                   13.58281 (Kcal/Mol)
 Vibrational temperatures:   2413.82  5542.38  5714.07
          (Kelvin)

 Zero-point correction=                           0.021646 (Hartree/Particle)
 Thermal correction to Energy=                    0.024480
 Thermal correction to Enthalpy=                  0.025425
 Thermal correction to Gibbs Free Energy=         0.003330
 Sum of electronic and zero-point Energies=            -76.207021
 Sum of electronic and thermal Energies=               -76.204186
 Sum of electronic and thermal Enthalpies=             -76.203242
 Sum of electronic and thermal Free Energies=          -76.225337

                     E (Thermal)             CV                S
                      KCal/Mol        Cal/Mol-Kelvin    Cal/Mol-Kelvin
 Total                   15.362              6.001             46.503
 Electronic               0.000              0.000              0.000
 Translational            0.889              2.981             34.608
 Rotational               0.889              2.981             11.889
 Vibrational             13.584              0.040              0.006

 Optimization completed.
    -- Stationary point found.
 Normal termination of Gaussian 16 at Thu Dec 16 11:32:29 2021.
