 Gaussian 16, Revision A.03,
 Gaussian 16:  ES64L-G16RevA.03 25-Dec-2016

 -----------------------------------------------
 #p opt freq mp2/cc-pvdz geom=connectivity polar
 -----------------------------------------------

 -----------
 Ethanol.xyz
 -----------
 Symbolic Z-matrix:
 Charge =  0 Multiplicity = 1

 SCF Done:  E(RHF) =  -154.090952449     A.U. after   12 cycles
 E2 =    -0.4813475697D+00 EUMP2 =    -0.15457230001863D+03
 SCF Done:  E(RHF) =  -154.090901303     A.U. after   10 cycles
 E2 =    -0.4827490590D+00 EUMP2 =    -0.15457365036251D+03
 SCF Done:  E(RHF) =  -154.091217858     A.U. after    9 cycles
 E2 =    -0.4825458894D+00 EUMP2 =    -0.15457376374746D+03
 SCF Done:  E(RHF) =  -154.091272111     A.U. after    9 cycles
 E2 =    -0.4824953395D+00 EUMP2 =    -0.15457376745046D+03
 SCF Done:  E(RHF) =  -154.091282963     A.U. after    8 cycles
 E2 =    -0.4824849140D+00 EUMP2 =    -0.15457376787706D+03
 Optimization completed.
    -- Stationary point found.
 Normal termination of Gaussian 16 at Thu Dec 16 11:32:33 2021.

 ---------------------------------------------------------------------
 #P Geom=AllCheck Guess=TCheck SCRF=Check GenChk RMP2(FC)/CC-pVDZ Freq
 ---------------------------------------------------------------------

 Structure from the checkpoint file:  "MP2_Ethanol_gaus.chk"
 -----------
 Ethanol.xyz
 -----------
 Charge =  0 Multiplicity = 1

                         Standard orientation:
 ---------------------------------------------------------------------
 Center     Atomic      Atomic             Coordinates (Angstroms)
 Number     Number       Type             X           Y           Z
 ---------------------------------------------------------------------
      1          6           0       -1.211289   -0.239280   -0.022827
      2          6           0        0.086644    0.557597    0.046757
      3          8           0        1.237770   -0.262274   -0.108137
      4          1           0       -2.090122    0.424873    0.034914
      5          1           0       -1.275252   -0.955704    0.815359
      6          1           0       -1.256917   -0.808846   -0.964756
      7          1           0        0.124814    1.136717    0.992029
      8          1           0        0.128600    1.285723   -0.779401
      9          1           0        1.214590   -0.894471    0.623372
 ---------------------------------------------------------------------

 SCF Done:  E(RHF) =  -154.091282963     A.U. after    1 cycles
 E2 =    -0.4824849138D+00 EUMP2 =    -0.15457376787691D+03
 E2 =    -0.4824849138D+00 EUMP2 =    -0.15457376787691D+03

 The electronic state is 1-A.
 Alpha  occ. eigenvalues --  -20.55139 -11.27950 -11.22860  -1.35259  -1.00738
 Alpha  occ. eigenvalues --   -0.84080  -0.67968  -0.61610  -0.60116  -0.53944
 Alpha  occ. eigenvalues --   -0.52070  -0.47673  -0.43668
 Alpha virt. eigenvalues --    0.17773   0.21893   0.23310   0.25203   0.26340
 Alpha virt. eigenvalues --    0.28500   0.38136   0.40131   0.59583   0.61985
 Alpha virt. eigenvalues --    0.66024   0.72312   0.75064   0.80446   0.84753

 Mulliken charges:
               1
     1  C   -0.093203
     2  C    0.160217
     3  O   -0.384457
     4  H    0.032574
     5  H    0.023193
     6  H    0.046352
     7  H    0.016673
     8  H    0.038074
     9  H    0.160576
 Sum of Mulliken charges =  -0.00000

 Dipole moment (field-independent basis, Debye):
    X=             -1.2889    Y=             -0.1382    Z=              1.2236  Tot=              1.7825
 Quadrupole moment (field-independent basis, Debye-Ang):
   XX=            -22.5441   YY=            -18.5724   ZZ=            -19.0395
   XY=             -0.9612   XZ=              1.7920   YZ=             -1.4406

  Exact polarizability:  28.207  -0.645  27.520   0.177  -0.942  25.875
 Approx polarizability:  22.154  -1.037  22.957  -0.353  -1.069  22.716

                      1                      2                      3
                      A                      A                      A
 Frequencies --    283.8939               331.3655               423.8504
 Red. masses --      1.0846                 1.1206                 2.6032
 Frc consts  --      0.0515                 0.0725                 0.2755
 IR Inten    --      4.6717               101.9881                21.4913

                      4                      5                      6
                      A                      A                      A
 Frequencies --    808.6870               908.3901              1079.5044
 Red. masses --      1.0794                 2.0743                 1.4268
 Frc consts  --      0.4159                 1.0085                 0.9797
 IR Inten    --      2.1728                 8.1026                36.2816

                      7                      8                      9
                      A                      A                      A
 Frequencies --   1118.1358              1151.2123              1292.1031
 Red. masses --      2.7150                 2.0314                 1.2561
 Frc consts  --      1.9999                 1.5862                 1.2356
 IR Inten    --     67.2753                13.5388                 8.9939

                     10                     11                     12
                      A                      A                      A
 Frequencies --   1385.4722              1404.8206              1437.6720
 Red. masses --      1.2418                 1.2311                 1.3198
 Frc consts  --      1.4045                 1.4315                 1.6072
 IR Inten    --      0.8042                 4.0927                53.1737

                     13                     14                     15
                      A                      A                      A
 Frequencies --   1487.9619              1495.6834              1522.5335
 Red. masses --      1.0491                 1.0464                 1.0947
 Frc consts  --      1.3686                 1.3792                 1.4952
 IR Inten    --      7.9104                 1.6300                 0.1447

                     16                     17                     18
                      A                      A                      A
 Frequencies --   3046.4035              3079.0808              3147.5919
 Red. masses --      1.0696                 1.0377                 1.0960
 Frc consts  --      5.8484                 5.7964                 6.3975
 IR Inten    --     72.6268                14.5059                14.1935

                     19                     20                     21
                      A                      A                      A
 Frequencies --   3175.4453              3195.0689              3844.8146
 Red. masses --      1.1016                 1.1035                 1.0661
 Frc consts  --      6.5444                 6.6373                 9.2852
 IR Inten    --     43.6899                23.5778                22.0379

 - Thermochemistry -
 -------------------
 Temperature   298.150 Kelvin.  Pressure   1.00000 Atm.
 Atom     1 has atomic number  6 and mass  12.00000

 Molecular mass:    46.04186 amu.
 Principal axes and moments of inertia in atomic units:
                           1         2         3
     Eigenvalues --    53.01321 196.20304 222.24058
           X            0.99975   0.01482   0.01674
           Y           -0.01388   0.99839  -0.05496
           Z           -0.01753   0.05471   0.99835
 This molecule is an asymmetric top.
 Rotational symmetry number  1.
 Rotational temperatures (Kelvin)      1.63382     0.44145     0.38973
 Rotational constants (GHZ):          34.04323     9.19833     8.12066
 Zero-point vibrational energy     213053.1 (Joules/Mol)
                                   50.92091 (Kcal/Mol)
 Warning -- explicit consideration of   3 degrees of freedom as
           vibrations may cause significant error
 Vibrational temperatures:    408.46   476.76   609.83  1163.52  1306.97
          (Kelvin)           1553.17  1608.75  1656.34  1859.05  1993.39
                             2021.22  2068.49  2140.85  2151.95  2190.59
                             4383.10  4430.11  4528.68  4568.76  4596.99
                             5531.83

 Zero-point correction=                           0.081148 (Hartree/Particle)
 Thermal correction to Energy=                    0.085337
 Thermal correction to Enthalpy=                  0.086281
 Thermal correction to Gibbs Free Energy=         0.055854
 Sum of electronic and zero-point Energies=           -154.492620
 Sum of electronic and thermal Energies=              -154.488431
 Sum of electronic and thermal Enthalpies=            -154.487487
 Sum of electronic and thermal Free Energies=         -154.517914

                     E (Thermal)             CV                S
                      KCal/Mol        Cal/Mol-Kelvin    Cal/Mol-Kelvin
 Total                   53.550             13.308             64.038
 Electronic               0.000              0.000              0.000
 Translational            0.889              2.981             37.406
 Rotational               0.889              2.981             22.363
 Vibrational             51.772              7.346              4.269
 Vibration     1          0.682              1.704              1.510
 Vibration     2          0.714              1.613              1.253
 Vibration     3          0.786              1.418              0.879

 Optimization completed.
    -- Stationary point found.
 Normal termination of Gaussian 16 at Thu Dec 16 11:32:56 2021.
