 Gaussian 16, Revision A.03,
 Gaussian 16:  ES64L-G16RevA.03 25-Dec-2016

 -----------------------------------------------
 #p opt freq mp2/cc-pvdz geom=connectivity polar
 -----------------------------------------------

 -----------
 Methane.xyz
 -----------
 Symbolic Z-matrix:
 Charge =  0 Multiplicity = 1

 SCF Done:  E(RHF) =  -40.1987065304     A.U. after    8 cycles
 E2 =    -0.1613284366D+00 EUMP2 =    -0.40360034967044D+02
 SCF Done:  E(RHF) =  -40.1984833880     A.U. after    7 cycles
 E2 =    -0.1616910930D+00 EUMP2 =    -0.40360174480968D+02
 Optimization completed.
    -- Stationary point found.
 Normal termination of Gaussian 16 at Thu Dec 16 11:32:16 2021.

 ---------------------------------------------------------------------
 #P Geom=AllCheck Guess=TCheck SCRF=Check GenChk RMP2(FC)/CC-pVDZ Freq
 ---------------------------------------------------------------------

 Structure from the checkpoint file:  "MP2_Methane_gaus.chk"
 -----------
 Methane.xyz
 -----------
 Charge =  0 Multiplicity = 1

                         Standard orientation:
 ---------------------------------------------------------------------
 Center     Atomic      Atomic             Coordinates (Angstroms)
 Number     Number       Type             X           Y           Z
 ---------------------------------------------------------------------
      1          6           0        0.000000    0.000000   -0.000000
      2          1           0       -0.679637    0.427919   -0.751673
      3          1           0       -0.399554    0.191448    1.006845
      4          1           0        0.992092    0.465494   -0.095416
      5          1           0        0.087097   -1.084862   -0.159755
 ---------------------------------------------------------------------

 SCF Done:  E(RHF) =  -40.1984833880     A.U. after    1 cycles
 E2 =    -0.1616910930D+00 EUMP2 =    -0.40360174480949D+02
 E2 =    -0.1616910930D+00 EUMP2 =    -0.40360174480949D+02

 The electronic state is 1-A.
 Alpha  occ. eigenvalues --  -11.22082  -0.93788  -0.54006  -0.54006  -0.54006
 Alpha virt. eigenvalues --    0.19175   0.27245   0.27245   0.27245   0.59005
 Alpha virt. eigenvalues --    0.59005   0.59005   0.88428   0.88428   0.88428
 Alpha virt. eigenvalues --    0.92167   1.13017   1.13017   1.25487   1.67785

 Mulliken charges:
               1
     1  C   -0.155105
     2  H    0.038776
     3  H    0.038776
     4  H    0.038777
     5  H    0.038776
 Sum of Mulliken charges =  -0.00000

 Dipole moment (field-independent basis, Debye):
    X=             -0.0000    Y=             -0.0000    Z=              0.0000  Tot=              0.0000
 Quadrupole moment (field-independent basis, Debye-Ang):
   XX=             -8.3891   YY=             -8.3891   ZZ=             -8.3891
   XY=              0.0000   XZ=              0.0000   YZ=              0.0000

  Exact polarizability:  13.183  -0.000  13.183  -0.000   0.000  13.183
 Approx polarizability:  10.730  -0.000  10.730  -0.000   0.000  10.730

                      1                      2                      3
                      A                      A                      A
 Frequencies --   1339.3796              1339.3801              1339.3805
 Red. masses --      1.1782                 1.1782                 1.1782
 Frc consts  --      1.2453                 1.2453                 1.2453
 IR Inten    --     11.4366                11.4366                11.4365

                      4                      5                      6
                      A                      A                      A
 Frequencies --   1565.6057              1565.6060              3078.1363
 Red. masses --      1.0078                 1.0078                 1.0078
 Frc consts  --      1.4555                 1.4555                 5.6261
 IR Inten    --      0.0000                 0.0000                 0.0000

                      7                      8                      9
                      A                      A                      A
 Frequencies --   3229.1625              3229.1635              3229.1648
 Red. masses --      1.1023                 1.1023                 1.1023
 Frc consts  --      6.7725                 6.7725                 6.7725
 IR Inten    --     17.0737                17.0739                17.0738

 - Thermochemistry -
 -------------------
 Temperature   298.150 Kelvin.  Pressure   1.00000 Atm.
 Atom     1 has atomic number  6 and mass  12.00000

 Molecular mass:    16.03130 amu.
 Principal axes and moments of inertia in atomic units:
                           1         2         3
     Eigenvalues --    11.61311  11.61312  11.61313
           X            1.00000  -0.00000   0.00000
           Y            0.00000   1.00000   0.00000
           Z           -0.00000  -0.00000   1.00000
 This molecule is an asymmetric top.
 Rotational symmetry number  1.
 Rotational temperatures (Kelvin)      7.45829     7.45828     7.45828
 Rotational constants (GHZ):         155.40552   155.40533   155.40526
 Zero-point vibrational energy     119118.0 (Joules/Mol)
                                   28.46989 (Kcal/Mol)
 Vibrational temperatures:   1927.07  1927.07  1927.07  2252.56  2252.56
          (Kelvin)           4428.75  4646.04  4646.05  4646.05

 Zero-point correction=                           0.045370 (Hartree/Particle)
 Thermal correction to Energy=                    0.048238
 Thermal correction to Enthalpy=                  0.049182
 Thermal correction to Gibbs Free Energy=         0.025682
 Sum of electronic and zero-point Energies=            -40.314805
 Sum of electronic and thermal Energies=               -40.311936
 Sum of electronic and thermal Enthalpies=             -40.310992
 Sum of electronic and thermal Free Energies=          -40.334492

                     E (Thermal)             CV                S
                      KCal/Mol        Cal/Mol-Kelvin    Cal/Mol-Kelvin
 Total                   30.270              6.470             49.461
 Electronic               0.000              0.000              0.000
 Translational            0.889              2.981             34.261
 Rotational               0.889              2.981             15.112
 Vibrational             28.493              0.509              0.087

 Optimization completed.
    -- Stationary point found.
 Normal termination of Gaussian 16 at Thu Dec 16 11:32:24 2021.
