                         Program Version 5.0.1 -  RELEASE  -
|  1> ! PAL4
|  2> ! RKS cc-pVDZ M062X VeryTightSCF TightOPT
|  3> ! Opt Freq
|  4> %method
|  5> end
|  6> %maxcore 2400
|  7> * xyz 0 1
|  8> C  1.203070  -0.785160  0.489290
|  9> C  1.236190  0.558590  0.588830
| 10> C  -0.015470  1.075650  -0.091650
| 11> C  -1.237180  0.617530  0.727680
| 12> C  -1.290660  -0.740730  0.574980
| 13> C  -0.072670  -1.146160  -0.259440
| 14> C  -2.096230  1.595690  1.435230
| 15> C  -2.996010  1.216710  2.434090
| 16> C  -3.944490  2.112680  2.949610
| 17> C  -3.967720  3.452570  2.553690
| 18> C  -2.982070  3.875020  1.666680
| 19> C  -2.059850  2.962270  1.122650
| 20> S  -5.332110  4.431980  3.140930
| 21> C  -4.858420  6.120600  3.090190
| 22> O  -3.732470  6.515770  2.814250
| 23> C  -5.972540  7.075630  3.432890
| 24> C  -2.229380  -1.774920  1.037920
| 25> C  -1.777070  -3.038310  1.437660
| 26> C  -2.663700  -3.984770  1.976260
| 27> C  -4.023350  -3.691020  2.137890
| 28> C  -4.490230  -2.474270  1.644170
| 29> C  -3.607920  -1.545610  1.074270
| 30> S  -5.067280  -4.931570  2.876700
| 31> C  -6.379800  -4.063670  3.671530
| 32> O  -6.348550  -2.869860  3.938750
| 33> C  -7.569320  -4.928290  4.005890
| 34> C  -0.091930  0.043420  -1.223620
| 35> H  1.915110  -1.480890  0.907790
| 36> H  1.969510  1.160410  1.102840
| 37> H  0.032690  2.092540  -0.475380
| 38> H  -0.082210  -2.112150  -0.764880
| 39> H  -3.011280  0.201950  2.819920
| 40> H  -4.686450  1.728650  3.648050
| 41> H  -2.915580  4.908590  1.340550
| 42> H  -1.336400  3.365630  0.421840
| 43> H  -6.899820  6.562000  3.702820
| 44> H  -6.173500  7.720120  2.572770
| 45> H  -5.661210  7.686180  4.285070
| 46> H  -0.724840  -3.302890  1.363410
| 47> H  -2.268590  -4.951310  2.283860
| 48> H  -5.541020  -2.205940  1.707200
| 49> H  -4.020040  -0.612690  0.695410
| 50> H  -7.386310  -5.988220  3.807040
| 51> H  -8.427240  -4.606030  3.408860
| 52> H  -7.801880  -4.818020  5.068900
| 53> H  0.768930  0.076930  -1.905250
| 54> H  -1.012080  0.113270  -1.822530
| 55> *
| 56>
| 57>
| 58>                          ****END OF INPUT****
 Total Charge           Charge          ....    0
 Multiplicity           Mult            ....    1
 Number of Electrons    NEL             ....  206
FINAL SINGLE POINT ENERGY     -1834.903424805825
FINAL SINGLE POINT ENERGY     -1834.913202285229
FINAL SINGLE POINT ENERGY     -1834.917675228648
FINAL SINGLE POINT ENERGY     -1834.920468018589
FINAL SINGLE POINT ENERGY     -1834.922080538354
FINAL SINGLE POINT ENERGY     -1834.923027037618
FINAL SINGLE POINT ENERGY     -1834.923507064448
FINAL SINGLE POINT ENERGY     -1834.923565392426
FINAL SINGLE POINT ENERGY     -1834.923859160813
FINAL SINGLE POINT ENERGY     -1834.923842246966
FINAL SINGLE POINT ENERGY     -1834.924309640293
FINAL SINGLE POINT ENERGY     -1834.924266413834
FINAL SINGLE POINT ENERGY     -1834.924322126772
FINAL SINGLE POINT ENERGY     -1834.924307397892
FINAL SINGLE POINT ENERGY     -1834.924360688467
FINAL SINGLE POINT ENERGY     -1834.924364028574
FINAL SINGLE POINT ENERGY     -1834.924366955857
FINAL SINGLE POINT ENERGY     -1834.924367376920
FINAL SINGLE POINT ENERGY     -1834.924366980361
                    ***********************HURRAY********************

CARTESIAN COORDINATES (ANGSTROEM)
---------------------------------
  C      1.083871   -0.583820    0.997885
  C      1.015915    0.750113    1.012163
  C     -0.068689    1.154127    0.000557
  C     -1.412661    0.647520    0.570156
  C     -1.353096   -0.701879    0.546049
  C      0.037588   -1.071724   -0.015878
  C     -2.422414    1.560474    1.129343
  C     -3.081064    1.282077    2.336821
  C     -4.012212    2.173867    2.859458
  C     -4.309693    3.357528    2.177842
  C     -3.663676    3.648979    0.974491
  C     -2.720626    2.761699    0.468033
  S     -5.535195    4.459239    2.852785
  C     -4.554849    5.971096    3.074287
  O     -3.433411    6.096667    2.674231
  C     -5.323454    7.029550    3.829582
  C     -2.319981   -1.714759    0.986182
  C     -1.865501   -2.926527    1.525719
  C     -2.762836   -3.900406    1.956415
  C     -4.135325   -3.688348    1.824964
  C     -4.605180   -2.494789    1.265029
  C     -3.705711   -1.520184    0.855473
  S     -5.259735   -4.970696    2.333817
  C     -6.263481   -4.082716    3.551520
  O     -6.132830   -2.917135    3.794640
  C     -7.297117   -4.973450    4.203287
  C      0.173211    0.058499   -1.065317
  H      1.702056   -1.229934    1.619124
  H      1.562129    1.445038    1.647489
  H     -0.058019    2.202469   -0.315062
  H      0.135050   -2.105136   -0.365160
  H     -2.846655    0.364623    2.878576
  H     -4.505366    1.959853    3.808256
  H     -3.895050    4.571285    0.442914
  H     -2.217851    2.995840   -0.471790
  H     -6.378444    7.043114    3.525613
  H     -4.854001    8.004483    3.655335
  H     -5.280491    6.790277    4.902253
  H     -0.793396   -3.100623    1.634375
  H     -2.397926   -4.829048    2.397099
  H     -5.676976   -2.334889    1.151876
  H     -4.076050   -0.593211    0.415393
  H     -7.185449   -6.026124    3.917647
  H     -8.293045   -4.613464    3.909097
  H     -7.205795   -4.864526    5.292257
  H      1.173724    0.107983   -1.514532
  H     -0.609664    0.024892   -1.834684

 Multiplicity           Mult            ....    1
 Number of Electrons    NEL             ....  206
 Basis Dimension        Dim             ....  486

ORBITAL ENERGIES
----------------

  NO   OCC          E(Eh)            E(eV)
   0   2.0000     -89.930975     -2447.1462
   1   2.0000     -89.928126     -2447.0687
   2   2.0000     -19.643190      -534.5184
   3   2.0000     -19.641915      -534.4837
   4   2.0000     -10.667021      -290.2644
   5   2.0000     -10.666397      -290.2474
   6   2.0000     -10.583928      -288.0033
   7   2.0000     -10.582843      -287.9738
   8   2.0000     -10.568069      -287.5718
   9   2.0000     -10.567850      -287.5658
  10   2.0000     -10.567007      -287.5429
  11   2.0000     -10.566665      -287.5336
  12   2.0000     -10.562246      -287.4133
  13   2.0000     -10.562185      -287.4117
  14   2.0000     -10.562139      -287.4104
  15   2.0000     -10.559694      -287.3439
  16   2.0000     -10.559165      -287.3295
  17   2.0000     -10.559088      -287.3274
  18   2.0000     -10.558513      -287.3117
  19   2.0000     -10.557263      -287.2777
  20   2.0000     -10.556646      -287.2609
  21   2.0000     -10.556131      -287.2469
  22   2.0000     -10.555614      -287.2328
  23   2.0000     -10.555030      -287.2170
  24   2.0000     -10.552951      -287.1604
  25   2.0000     -10.547875      -287.0223
  26   2.0000     -10.546776      -286.9924
  27   2.0000      -8.276835      -225.2241
  28   2.0000      -8.274005      -225.1471
  29   2.0000      -6.194697      -168.5663
  30   2.0000      -6.192239      -168.4994
  31   2.0000      -6.192028      -168.4936
  32   2.0000      -6.189400      -168.4221
  33   2.0000      -6.189284      -168.4190
  34   2.0000      -6.186358      -168.3394
  35   2.0000      -1.186143       -32.2766
  36   2.0000      -1.185731       -32.2654
  37   2.0000      -1.006450       -27.3869
  38   2.0000      -0.971401       -26.4332
  39   2.0000      -0.969836       -26.3906
  40   2.0000      -0.905244       -24.6330
  41   2.0000      -0.897346       -24.4180
  42   2.0000      -0.869456       -23.6591
  43   2.0000      -0.860179       -23.4067
  44   2.0000      -0.848045       -23.0765
  45   2.0000      -0.845363       -23.0035
  46   2.0000      -0.837042       -22.7771
  47   2.0000      -0.815732       -22.1972
  48   2.0000      -0.803178       -21.8556
  49   2.0000      -0.782959       -21.3054
  50   2.0000      -0.769068       -20.9274
  51   2.0000      -0.701305       -19.0835
  52   2.0000      -0.694260       -18.8918
  53   2.0000      -0.690999       -18.8030
  54   2.0000      -0.677501       -18.4357
  55   2.0000      -0.642383       -17.4801
  56   2.0000      -0.628095       -17.0913
  57   2.0000      -0.621884       -16.9223
  58   2.0000      -0.618930       -16.8419
  59   2.0000      -0.602906       -16.4059
  60   2.0000      -0.589578       -16.0432
  61   2.0000      -0.570325       -15.5193
  62   2.0000      -0.556075       -15.1316
  63   2.0000      -0.552178       -15.0255
  64   2.0000      -0.538275       -14.6472
  65   2.0000      -0.534503       -14.5446
  66   2.0000      -0.528067       -14.3694
  67   2.0000      -0.527719       -14.3600
  68   2.0000      -0.523683       -14.2501
  69   2.0000      -0.520153       -14.1541
  70   2.0000      -0.513322       -13.9682
  71   2.0000      -0.512340       -13.9415
  72   2.0000      -0.504482       -13.7277
  73   2.0000      -0.497126       -13.5275
  74   2.0000      -0.489834       -13.3291
  75   2.0000      -0.487318       -13.2606
  76   2.0000      -0.470445       -12.8015
  77   2.0000      -0.469807       -12.7841
  78   2.0000      -0.466509       -12.6944
  79   2.0000      -0.457789       -12.4571
  80   2.0000      -0.445747       -12.1294
  81   2.0000      -0.441666       -12.0184
  82   2.0000      -0.439878       -11.9697
  83   2.0000      -0.433724       -11.8022
  84   2.0000      -0.432394       -11.7660
  85   2.0000      -0.426383       -11.6025
  86   2.0000      -0.414591       -11.2816
  87   2.0000      -0.407065       -11.0768
  88   2.0000      -0.401853       -10.9350
  89   2.0000      -0.398036       -10.8311
  90   2.0000      -0.394261       -10.7284
  91   2.0000      -0.389337       -10.5944
  92   2.0000      -0.378149       -10.2900
  93   2.0000      -0.353251        -9.6125
  94   2.0000      -0.339628        -9.2417
  95   2.0000      -0.324446        -8.8286
  96   2.0000      -0.319529        -8.6948
  97   2.0000      -0.313075        -8.5192
  98   2.0000      -0.309943        -8.4340
  99   2.0000      -0.303679        -8.2635
 100   2.0000      -0.299166        -8.1407
 101   2.0000      -0.287179        -7.8145
 102   2.0000      -0.248789        -6.7699
 103   0.0000      -0.026440        -0.7195
 104   0.0000       0.015514         0.4221
 105   0.0000       0.017436         0.4745
 106   0.0000       0.027783         0.7560
 107   0.0000       0.033122         0.9013

MULLIKEN ATOMIC CHARGES
-----------------------
   0 C :    0.029519
   1 C :    0.038355
   2 C :   -0.110114
   3 C :    0.047345
   4 C :    0.049383
   5 C :   -0.120151
   6 C :   -0.058248
   7 C :    0.009978
   8 C :    0.080272
   9 C :   -0.193332
  10 C :    0.105445
  11 C :   -0.006134
  12 S :    0.009422
  13 C :   -0.012201
  14 O :   -0.192001
  15 C :   -0.041526
  16 C :   -0.054146
  17 C :   -0.011861
  18 C :    0.076063
  19 C :   -0.191279
  20 C :    0.108356
  21 C :    0.005140
  22 S :    0.015153
  23 C :   -0.013306
  24 O :   -0.197600
  25 C :   -0.042076
  26 C :    0.148839
  27 H :    0.001667
  28 H :    0.005792
  29 H :   -0.015498
  30 H :   -0.013617
  31 H :    0.008331
  32 H :    0.006641
  33 H :    0.005636
  34 H :   -0.001606
  35 H :    0.072164
  36 H :    0.072627
  37 H :    0.088270
  38 H :   -0.004625
  39 H :    0.001512
  40 H :    0.006645
  41 H :    0.004796
  42 H :    0.062761
  43 H :    0.086760
  44 H :    0.083859
  45 H :    0.022469
  46 H :    0.026122
Sum of atomic charges:   -0.0000000

LOEWDIN ATOMIC CHARGES
----------------------
   0 C :   -0.022788
   1 C :   -0.014722
   2 C :   -0.020388
   3 C :   -0.009163
   4 C :   -0.012726
   5 C :   -0.022794
   6 C :   -0.036477
   7 C :   -0.011573
   8 C :   -0.030983
   9 C :   -0.163660
  10 C :   -0.022704
  11 C :   -0.020119
  12 S :    0.267429
  13 C :   -0.184768
  14 O :   -0.008904
  15 C :   -0.096275
  16 C :   -0.033918
  17 C :   -0.024304
  18 C :   -0.034304
  19 C :   -0.164700
  20 C :   -0.021233
  21 C :   -0.011118
  22 S :    0.273326
  23 C :   -0.187302
  24 O :   -0.014177
  25 C :   -0.095476
  26 C :    0.004933
  27 H :    0.021532
  28 H :    0.024183
  29 H :    0.020496
  30 H :    0.020678
  31 H :    0.039224
  32 H :    0.035541
  33 H :    0.035142
  34 H :    0.032402
  35 H :    0.045725
  36 H :    0.047878
  37 H :    0.058129
  38 H :    0.032181
  39 H :    0.033357
  40 H :    0.035781
  41 H :    0.037817
  42 H :    0.038439
  43 H :    0.057322
  44 H :    0.055908
  45 H :    0.023688
  46 H :    0.023468

  Mayer bond orders larger than 0.100000
B(  0-C ,  1-C ) :   1.9118 B(  0-C ,  5-C ) :   0.9901 B(  0-C , 27-H ) :   0.9660
B(  1-C ,  2-C ) :   0.9966 B(  1-C , 28-H ) :   0.9668 B(  2-C ,  3-C ) :   0.9967
B(  2-C , 26-C ) :   1.0045 B(  2-C , 29-H ) :   0.9451 B(  3-C ,  4-C ) :   1.7183
B(  3-C ,  6-C ) :   1.0282 B(  4-C ,  5-C ) :   0.9966 B(  4-C , 16-C ) :   1.0465
B(  5-C , 26-C ) :   1.0084 B(  5-C , 30-H ) :   0.9460 B(  6-C ,  7-C ) :   1.4291
B(  6-C , 11-C ) :   1.4184 B(  7-C ,  8-C ) :   1.4811 B(  7-C , 31-H ) :   0.9377
B(  8-C ,  9-C ) :   1.4111 B(  8-C , 32-H ) :   0.9349 B(  9-C , 10-C ) :   1.3889
B(  9-C , 12-S ) :   1.0247 B( 10-C , 11-C ) :   1.4848 B( 10-C , 33-H ) :   0.9321
B( 11-C , 34-H ) :   0.9369 B( 12-S , 13-C ) :   0.9974 B( 12-S , 14-O ) :   0.1153
B( 13-C , 14-O ) :   2.1552 B( 13-C , 15-C ) :   1.0235 B( 15-C , 35-H ) :   0.9529
B( 15-C , 36-H ) :   0.9542 B( 15-C , 37-H ) :   0.9469 B( 16-C , 17-C ) :   1.4293
B( 16-C , 21-C ) :   1.4129 B( 17-C , 18-C ) :   1.4693 B( 17-C , 38-H ) :   0.9344
B( 18-C , 19-C ) :   1.4252 B( 18-C , 39-H ) :   0.9336 B( 19-C , 20-C ) :   1.3734
B( 19-C , 22-S ) :   1.0225 B( 20-C , 21-C ) :   1.5008 B( 20-C , 40-H ) :   0.9317
B( 21-C , 41-H ) :   0.9351 B( 22-S , 23-C ) :   1.0042 B( 22-S , 24-O ) :   0.1201
B( 23-C , 24-O ) :   2.1490 B( 23-C , 25-C ) :   1.0214 B( 25-C , 42-H ) :   0.9576
B( 25-C , 43-H ) :   0.9477 B( 25-C , 44-H ) :   0.9493 B( 26-C , 45-H ) :   0.9436
B( 26-C , 46-H ) :   0.9470

FINAL SINGLE POINT ENERGY     -1834.924366779327

DIPOLE MOMENT
-------------
                                X             Y             Z
Electronic contribution:     -5.79958      -2.28419       0.58375
Nuclear contribution   :      5.51771       2.02135      -0.37025
                        -----------------------------------------
Total Dipole Moment    :     -0.28187      -0.26284       0.21350
                        -----------------------------------------
Magnitude (a.u.)       :      0.44059
Magnitude (Debye)      :      1.11988

VIBRATIONAL FREQUENCIES
-----------------------

Scaling factor for frequencies =  1.000000000  (already applied!)

   0:         0.00 cm**-1
   1:         0.00 cm**-1
   2:         0.00 cm**-1
   3:         0.00 cm**-1
   4:         0.00 cm**-1
   5:         0.00 cm**-1
   6:      -103.96 cm**-1 ***imaginary mode***
   7:        16.22 cm**-1
   8:        25.59 cm**-1
   9:        28.46 cm**-1
  10:        37.72 cm**-1
  11:        46.78 cm**-1
  12:        58.01 cm**-1
  13:        68.30 cm**-1
  14:        75.22 cm**-1
  15:        80.78 cm**-1
  16:        84.66 cm**-1
  17:        97.85 cm**-1
  18:       131.60 cm**-1
  19:       144.70 cm**-1
  20:       164.36 cm**-1
  21:       186.17 cm**-1
  22:       209.12 cm**-1
  23:       219.32 cm**-1
  24:       253.45 cm**-1
  25:       281.48 cm**-1
  26:       322.60 cm**-1
  27:       333.50 cm**-1
  28:       337.24 cm**-1
  29:       343.23 cm**-1
  30:       370.35 cm**-1
  31:       414.56 cm**-1
  32:       420.68 cm**-1
  33:       424.11 cm**-1
  34:       467.89 cm**-1
  35:       471.12 cm**-1
  36:       498.44 cm**-1
  37:       501.50 cm**-1
  38:       516.90 cm**-1
  39:       529.45 cm**-1
  40:       533.35 cm**-1
  41:       545.11 cm**-1
  42:       567.41 cm**-1
  43:       600.29 cm**-1
  44:       601.87 cm**-1
  45:       621.73 cm**-1
  46:       630.45 cm**-1
  47:       639.40 cm**-1
  48:       648.22 cm**-1
  49:       699.08 cm**-1
  50:       724.27 cm**-1
  51:       735.67 cm**-1
  52:       745.62 cm**-1
  53:       758.17 cm**-1
  54:       762.21 cm**-1
  55:       807.48 cm**-1
  56:       831.84 cm**-1
  57:       849.16 cm**-1
  58:       857.30 cm**-1
  59:       860.62 cm**-1
  60:       866.91 cm**-1
  61:       894.18 cm**-1
  62:       918.69 cm**-1
  63:       930.66 cm**-1
  64:       953.47 cm**-1
  65:       955.05 cm**-1
  66:       969.79 cm**-1
  67:       974.77 cm**-1
  68:       980.00 cm**-1
  69:       984.04 cm**-1
  70:       992.23 cm**-1
  71:       993.84 cm**-1
  72:       996.43 cm**-1
  73:       999.98 cm**-1
  74:      1002.41 cm**-1
  75:      1018.10 cm**-1
  76:      1027.69 cm**-1
  77:      1032.82 cm**-1
  78:      1043.57 cm**-1
  79:      1067.14 cm**-1
  80:      1098.01 cm**-1
  81:      1119.02 cm**-1
  82:      1122.89 cm**-1
  83:      1132.29 cm**-1
  84:      1133.95 cm**-1
  85:      1142.63 cm**-1
  86:      1142.80 cm**-1
  87:      1148.46 cm**-1
  88:      1182.14 cm**-1
  89:      1198.65 cm**-1
  90:      1206.35 cm**-1
  91:      1231.89 cm**-1
  92:      1253.70 cm**-1
  93:      1261.31 cm**-1
  94:      1270.34 cm**-1
  95:      1270.78 cm**-1
  96:      1307.52 cm**-1
  97:      1315.24 cm**-1
  98:      1320.01 cm**-1
  99:      1332.66 cm**-1
 100:      1336.57 cm**-1
 101:      1362.55 cm**-1
 102:      1365.68 cm**-1
 103:      1387.09 cm**-1
 104:      1437.34 cm**-1
 105:      1437.74 cm**-1
 106:      1442.39 cm**-1
 107:      1443.88 cm**-1
 108:      1446.09 cm**-1
 109:      1452.41 cm**-1
 110:      1471.13 cm**-1
 111:      1532.09 cm**-1
 112:      1548.01 cm**-1
 113:      1642.02 cm**-1
 114:      1644.99 cm**-1
 115:      1675.58 cm**-1
 116:      1684.41 cm**-1
 117:      1687.47 cm**-1
 118:      1736.81 cm**-1
 119:      1865.69 cm**-1
 120:      1873.70 cm**-1
 121:      3079.86 cm**-1
 122:      3081.34 cm**-1
 123:      3093.84 cm**-1
 124:      3157.37 cm**-1
 125:      3161.61 cm**-1
 126:      3165.95 cm**-1
 127:      3172.05 cm**-1
 128:      3177.06 cm**-1
 129:      3197.90 cm**-1
 130:      3203.11 cm**-1
 131:      3212.23 cm**-1
 132:      3216.23 cm**-1
 133:      3222.06 cm**-1
 134:      3224.46 cm**-1
 135:      3230.12 cm**-1
 136:      3236.60 cm**-1
 137:      3241.74 cm**-1
 138:      3244.65 cm**-1
 139:      3245.16 cm**-1
 140:      3269.04 cm**-1

IR SPECTRUM
-----------

 Mode   freq       eps      Int      T**2         TX        TY        TZ
       cm**-1   L/(mol*cm) km/mol    a.u.
----------------------------------------------------------------------------
  7:     16.22   0.000032    0.16  0.000619  (-0.021350  0.012543 -0.002473)
  8:     25.59   0.000055    0.28  0.000670  ( 0.000696  0.023784 -0.010202)
  9:     28.46   0.000019    0.10  0.000212  ( 0.009235 -0.009273  0.006348)
 10:     37.72   0.000153    0.77  0.001265  (-0.011509 -0.022114 -0.025370)
 11:     46.78   0.000314    1.59  0.002093  (-0.001172  0.004261 -0.045531)
 12:     58.01   0.000122    0.62  0.000656  (-0.019652  0.013170 -0.009801)
 13:     68.30   0.000538    2.72  0.002457  (-0.028029  0.020344 -0.035464)
 14:     75.22   0.000059    0.30  0.000244  ( 0.014384  0.000987  0.005991)
 15:     80.78   0.000264    1.33  0.001019  (-0.021609 -0.017820 -0.015329)
 16:     84.66   0.000560    2.83  0.002066  ( 0.003212  0.019161 -0.041089)
 17:     97.85   0.000019    0.09  0.000060  (-0.000922 -0.006847 -0.003456)
 18:    131.60   0.000269    1.36  0.000638  (-0.016304  0.014233  0.013032)
 19:    144.70   0.000016    0.08  0.000034  (-0.005194  0.002673  0.000585)
 20:    164.36   0.000269    1.36  0.000511  (-0.001635  0.021377  0.007188)
 21:    186.17   0.000241    1.22  0.000404  ( 0.007981  0.002969 -0.018217)
 22:    209.12   0.000327    1.65  0.000488  (-0.013089  0.014137  0.010810)
 23:    219.32   0.000591    2.99  0.000841  ( 0.010691  0.025232  0.009485)
 24:    253.45   0.000272    1.37  0.000335  (-0.003529  0.005440  0.017103)
 25:    281.48   0.000115    0.58  0.000128  (-0.006414  0.009309 -0.000108)
 26:    322.60   0.000276    1.39  0.000267  ( 0.015555  0.003944 -0.003015)
 27:    333.50   0.000198    1.00  0.000186  ( 0.011701 -0.004707 -0.005142)
 28:    337.24   0.000028    0.14  0.000026  (-0.003635  0.003523 -0.000242)
 29:    343.23   0.000453    2.29  0.000412  ( 0.010227  0.017042 -0.004062)
 30:    370.35   0.000311    1.57  0.000262  ( 0.001941 -0.015170 -0.005314)
 31:    414.56   0.000057    0.29  0.000043  (-0.004393  0.004539  0.001818)
 32:    420.68   0.000649    3.28  0.000482  (-0.010398 -0.019283  0.001331)
 33:    424.11   0.001030    5.21  0.000758  (-0.012093 -0.024121 -0.005463)
 34:    467.89   0.000826    4.18  0.000551  ( 0.022731  0.000889 -0.005795)
 35:    471.12   0.000173    0.87  0.000114  ( 0.008358 -0.006466 -0.001681)
 36:    498.44   0.001260    6.37  0.000789  (-0.001688  0.012737  0.024981)
 37:    501.50   0.000922    4.66  0.000574  (-0.021770 -0.007949  0.006049)
 38:    516.90   0.001218    6.16  0.000735  (-0.020310 -0.003730 -0.017579)
 39:    529.45   0.000591    2.99  0.000348  (-0.006973 -0.015958 -0.006699)
 40:    533.35   0.000269    1.36  0.000158  ( 0.012168  0.001472  0.002721)
 41:    545.11   0.000717    3.62  0.000411  ( 0.015968 -0.010868 -0.006126)
 42:    567.41   0.000487    2.46  0.000268  (-0.011966  0.010465 -0.003912)
 43:    600.29   0.001753    8.86  0.000911  (-0.011262 -0.020292 -0.019310)
 44:    601.87   0.000520    2.63  0.000270  ( 0.009121  0.007099 -0.011670)
 45:    621.73   0.016318   82.46  0.008190  ( 0.066095  0.007696 -0.061340)
 46:    630.45   0.020030  101.22  0.009915  (-0.003891 -0.094600 -0.030826)
 47:    639.40   0.000612    3.09  0.000299  (-0.008215 -0.014845  0.003294)
 48:    648.22   0.000244    1.23  0.000117  (-0.000197 -0.003488 -0.010253)
 49:    699.08   0.000751    3.80  0.000335  (-0.012073 -0.012576  0.005599)
 50:    724.27   0.000370    1.87  0.000159  (-0.000149  0.012615 -0.000344)
 51:    735.67   0.005825   29.44  0.002471  ( 0.041899  0.011501 -0.024145)
 52:    745.62   0.000187    0.94  0.000078  (-0.003678  0.002117  0.007750)
 53:    758.17   0.000285    1.44  0.000117  (-0.000597  0.010362  0.003100)
 54:    762.21   0.004501   22.75  0.001843  ( 0.034293  0.000565 -0.025818)
 55:    807.48   0.002896   14.64  0.001119  (-0.015542 -0.028897 -0.006540)
 56:    831.84   0.002581   13.04  0.000968  ( 0.025083 -0.007189 -0.016956)
 57:    849.16   0.003399   17.18  0.001249  ( 0.010106  0.010366  0.032242)
 58:    857.30   0.008597   43.45  0.003129  (-0.003773 -0.036118 -0.042551)
 59:    860.62   0.000859    4.34  0.000312  ( 0.009777  0.012810  0.007201)
 60:    866.91   0.000688    3.48  0.000248  ( 0.012959  0.006934  0.005635)
 61:    894.18   0.000050    0.25  0.000018  (-0.000939  0.002514 -0.003222)
 62:    918.69   0.000548    2.77  0.000186  ( 0.005101 -0.002994 -0.012296)
 63:    930.66   0.000466    2.36  0.000156  (-0.001215 -0.012115  0.002835)
 64:    953.47   0.000032    0.16  0.000011  (-0.000828 -0.001819 -0.002554)
 65:    955.05   0.000226    1.14  0.000074  (-0.007358  0.001172  0.004277)
 66:    969.79   0.007168   36.22  0.002306  ( 0.012916  0.043492  0.015749)
 67:    974.77   0.000951    4.80  0.000304  (-0.002455 -0.015864 -0.006832)
 68:    980.00   0.000363    1.84  0.000116  (-0.009950 -0.004078  0.000077)
 69:    984.04   0.000057    0.29  0.000018  ( 0.000345  0.003792  0.001881)
 70:    992.23   0.003330   16.83  0.001047  ( 0.026682 -0.001895 -0.018214)
 71:    993.84   0.004560   23.04  0.001432  (-0.030023  0.006250  0.022167)
 72:    996.43   0.000057    0.29  0.000018  (-0.000263 -0.002551 -0.003338)
 73:    999.98   0.000102    0.52  0.000032  (-0.002350  0.005099 -0.000656)
 74:   1002.41   0.001585    8.01  0.000494  ( 0.002906  0.009247  0.019991)
 75:   1018.10   0.000873    4.41  0.000268  (-0.000187 -0.013475  0.009270)
 76:   1027.69   0.004407   22.27  0.001338  (-0.009178 -0.035393  0.001181)
 77:   1032.82   0.001645    8.31  0.000497  (-0.011371  0.016232  0.010210)
 78:   1043.57   0.000986    4.98  0.000295  ( 0.015334 -0.003597 -0.006841)
 79:   1067.14   0.000203    1.03  0.000059  (-0.002520 -0.006049 -0.004053)
 80:   1098.01   0.000175    0.89  0.000050  ( 0.003663  0.001989  0.005692)
 81:   1119.02   0.041493  209.69  0.011571  ( 0.080358  0.012924 -0.070335)
 82:   1122.89   0.000727    3.67  0.000202  (-0.002456  0.003517  0.013553)
 83:   1132.29   0.031582  159.60  0.008704  ( 0.001161  0.089515  0.026264)
 84:   1133.95   0.002001   10.11  0.000551  (-0.003636 -0.014757 -0.017883)
 85:   1142.63   0.004003   20.23  0.001093  ( 0.023055  0.005934 -0.022947)
 86:   1142.80   0.001467    7.42  0.000401  ( 0.008201 -0.014408  0.011220)
 87:   1148.46   0.018241   92.18  0.004956  (-0.005148 -0.066297 -0.023123)
 88:   1182.14   0.000149    0.75  0.000039  ( 0.001297  0.006129 -0.000212)
 89:   1198.65   0.000159    0.80  0.000041  (-0.002675  0.004050  0.004210)
 90:   1206.35   0.000110    0.55  0.000028  ( 0.001804  0.004556 -0.002085)
 91:   1231.89   0.000561    2.83  0.000142  ( 0.011671  0.002021 -0.001318)
 92:   1253.70   0.000170    0.86  0.000042  ( 0.002011 -0.006183 -0.000005)
 93:   1261.31   0.000152    0.77  0.000037  (-0.001791  0.000892  0.005786)
 94:   1270.34   0.000979    4.95  0.000241  ( 0.001398 -0.009078 -0.012498)
 95:   1270.78   0.000796    4.02  0.000196  (-0.000377 -0.013422  0.003907)
 96:   1307.52   0.000025    0.13  0.000006  (-0.000691  0.001154  0.002028)
 97:   1315.24   0.000033    0.17  0.000008  ( 0.002565 -0.000237 -0.001134)
 98:   1320.01   0.003200   16.17  0.000756  ( 0.002511  0.027314  0.002027)
 99:   1332.66   0.000514    2.60  0.000120  (-0.002857  0.009131 -0.005363)
100:   1336.57   0.000083    0.42  0.000019  ( 0.003848  0.000330 -0.002117)
101:   1362.55   0.005210   26.33  0.001193  (-0.027043 -0.008955  0.019536)
102:   1365.68   0.007531   38.06  0.001721  ( 0.012794 -0.031380 -0.023926)
103:   1387.09   0.000846    4.27  0.000190  (-0.001299  0.013635 -0.001635)
104:   1437.34   0.001838    9.29  0.000399  (-0.012823 -0.005188 -0.014414)
105:   1437.74   0.002296   11.60  0.000498  ( 0.021726 -0.000015 -0.005131)
106:   1442.39   0.002340   11.83  0.000506  (-0.018947 -0.003003  0.011759)
107:   1443.88   0.001989   10.05  0.000430  (-0.009228  0.013322 -0.012934)
108:   1446.09   0.004038   20.41  0.000871  ( 0.006438  0.027328 -0.009116)
109:   1452.41   0.002418   12.22  0.000520  (-0.010748  0.012286 -0.015910)
110:   1471.13   0.000562    2.84  0.000119  (-0.002362 -0.000884  0.010623)
111:   1532.09   0.003770   19.05  0.000768  (-0.024320  0.000238  0.013282)
112:   1548.01   0.008673   43.83  0.001748  ( 0.001380  0.041786  0.000608)
113:   1642.02   0.000068    0.34  0.000013  (-0.002043  0.002941  0.000355)
114:   1644.99   0.000362    1.83  0.000069  ( 0.000438  0.007830 -0.002692)
115:   1675.58   0.001313    6.64  0.000245  (-0.015394 -0.002125  0.001744)
116:   1684.41   0.000675    3.41  0.000125  ( 0.008444  0.006645  0.003101)
117:   1687.47   0.002044   10.33  0.000378  (-0.002534  0.019195  0.001764)
118:   1736.81   0.001816    9.18  0.000326  (-0.016691 -0.005141  0.004611)
119:   1865.69   0.035368  178.74  0.005916  (-0.021644  0.058537  0.044954)
120:   1873.70   0.043247  218.55  0.007203  ( 0.063618  0.055731 -0.007046)
121:   3079.86   0.000073    0.37  0.000007  (-0.001556  0.002195  0.000372)
122:   3081.34   0.000107    0.54  0.000011  ( 0.001937  0.002456 -0.001013)
123:   3093.84   0.007425   37.52  0.000749  (-0.008991 -0.000625  0.025839)
124:   3157.37   0.005850   29.56  0.000578  ( 0.002128 -0.023126 -0.006232)
125:   3161.61   0.002349   11.87  0.000232  (-0.001693 -0.012982  0.007775)
126:   3165.95   0.005704   28.82  0.000562  (-0.023640 -0.001390 -0.001186)
127:   3172.05   0.000156    0.79  0.000015  (-0.003095  0.002401 -0.000077)
128:   3177.06   0.000044    0.22  0.000004  (-0.000157 -0.001968  0.000648)
129:   3197.90   0.000242    1.22  0.000024  (-0.000055 -0.004598 -0.001569)
130:   3203.11   0.000496    2.51  0.000048  (-0.000391 -0.006482 -0.002477)
131:   3212.23   0.000929    4.69  0.000090  ( 0.008518  0.003482 -0.002359)
132:   3216.23   0.001084    5.48  0.000105  (-0.006838  0.001759  0.007437)
133:   3222.06   0.000205    1.03  0.000020  (-0.001045  0.004319  0.000265)
134:   3224.46   0.000304    1.54  0.000029  (-0.000533 -0.005123  0.001713)
135:   3230.12   0.000666    3.36  0.000064  (-0.006645  0.004480 -0.000312)
136:   3236.60   0.000126    0.63  0.000012  ( 0.001066 -0.002589  0.002067)
137:   3241.74   0.000193    0.98  0.000019  (-0.000514  0.004175 -0.000943)
138:   3244.65   0.000220    1.11  0.000021  ( 0.000420 -0.003523  0.002923)
139:   3245.16   0.000118    0.59  0.000011  (-0.002253 -0.000710 -0.002394)
140:   3269.04   0.000703    3.55  0.000067  (-0.007155 -0.000330 -0.003978)

--------------------------
THERMOCHEMISTRY AT 298.15K
--------------------------

Temperature         ... 298.15 K
Pressure            ... 1.00 atm
Total Mass          ... 392.53 AMU

Throughout the following assumptions are being made:
  (1) The electronic state is orbitally nondegenerate
  (2) There are no thermally accessible electronically excited states
  (3) Hindered rotations indicated by low frequency modes are not
      treated as such but are treated as vibrations and this may
      cause some error
  (4) All equations used are the standard statistical mechanics
      equations for an ideal gas
  (5) All vibrations are strictly harmonic

freq.      16.22  E(vib)   ...       0.57
freq.      25.59  E(vib)   ...       0.56
freq.      28.46  E(vib)   ...       0.55
freq.      37.72  E(vib)   ...       0.54
freq.      46.78  E(vib)   ...       0.53
freq.      58.01  E(vib)   ...       0.51
freq.      68.30  E(vib)   ...       0.50
freq.      75.22  E(vib)   ...       0.49
freq.      80.78  E(vib)   ...       0.48
freq.      84.66  E(vib)   ...       0.48
freq.      97.85  E(vib)   ...       0.46
freq.     131.60  E(vib)   ...       0.42
freq.     144.70  E(vib)   ...       0.41
freq.     164.36  E(vib)   ...       0.39
freq.     186.17  E(vib)   ...       0.37
freq.     209.12  E(vib)   ...       0.34
freq.     219.32  E(vib)   ...       0.33
freq.     253.45  E(vib)   ...       0.30
freq.     281.48  E(vib)   ...       0.28
freq.     322.60  E(vib)   ...       0.25
freq.     333.50  E(vib)   ...       0.24
freq.     337.24  E(vib)   ...       0.24
freq.     343.23  E(vib)   ...       0.23
freq.     370.35  E(vib)   ...       0.21
freq.     414.56  E(vib)   ...       0.19
freq.     420.68  E(vib)   ...       0.18
freq.     424.11  E(vib)   ...       0.18
freq.     467.89  E(vib)   ...       0.16
freq.     471.12  E(vib)   ...       0.15
freq.     498.44  E(vib)   ...       0.14
freq.     501.50  E(vib)   ...       0.14
freq.     516.90  E(vib)   ...       0.13
freq.     529.45  E(vib)   ...       0.13
freq.     533.35  E(vib)   ...       0.13
freq.     545.11  E(vib)   ...       0.12
freq.     567.41  E(vib)   ...       0.11
freq.     600.29  E(vib)   ...       0.10
freq.     601.87  E(vib)   ...       0.10
freq.     621.73  E(vib)   ...       0.09
freq.     630.45  E(vib)   ...       0.09
freq.     639.40  E(vib)   ...       0.09
freq.     648.22  E(vib)   ...       0.08
freq.     699.08  E(vib)   ...       0.07
freq.     724.27  E(vib)   ...       0.06
freq.     735.67  E(vib)   ...       0.06
freq.     745.62  E(vib)   ...       0.06
freq.     758.17  E(vib)   ...       0.06
freq.     762.21  E(vib)   ...       0.06
freq.     807.48  E(vib)   ...       0.05
freq.     831.84  E(vib)   ...       0.04
freq.     849.16  E(vib)   ...       0.04
freq.     857.30  E(vib)   ...       0.04
freq.     860.62  E(vib)   ...       0.04
freq.     866.91  E(vib)   ...       0.04
freq.     894.18  E(vib)   ...       0.03
freq.     918.69  E(vib)   ...       0.03
freq.     930.66  E(vib)   ...       0.03
freq.     953.47  E(vib)   ...       0.03
freq.     955.05  E(vib)   ...       0.03
freq.     969.79  E(vib)   ...       0.03
freq.     974.77  E(vib)   ...       0.03
freq.     980.00  E(vib)   ...       0.02
freq.     984.04  E(vib)   ...       0.02
freq.     992.23  E(vib)   ...       0.02
freq.     993.84  E(vib)   ...       0.02
freq.     996.43  E(vib)   ...       0.02
freq.     999.98  E(vib)   ...       0.02
freq.    1002.41  E(vib)   ...       0.02
freq.    1018.10  E(vib)   ...       0.02
freq.    1027.69  E(vib)   ...       0.02
freq.    1032.82  E(vib)   ...       0.02
freq.    1043.57  E(vib)   ...       0.02
freq.    1067.14  E(vib)   ...       0.02
freq.    1098.01  E(vib)   ...       0.02
freq.    1119.02  E(vib)   ...       0.01
freq.    1122.89  E(vib)   ...       0.01
freq.    1132.29  E(vib)   ...       0.01
freq.    1133.95  E(vib)   ...       0.01
freq.    1142.63  E(vib)   ...       0.01
freq.    1142.80  E(vib)   ...       0.01
freq.    1148.46  E(vib)   ...       0.01
freq.    1182.14  E(vib)   ...       0.01
freq.    1198.65  E(vib)   ...       0.01
freq.    1206.35  E(vib)   ...       0.01
freq.    1231.89  E(vib)   ...       0.01
freq.    1253.70  E(vib)   ...       0.01
freq.    1261.31  E(vib)   ...       0.01
freq.    1270.34  E(vib)   ...       0.01
freq.    1270.78  E(vib)   ...       0.01
freq.    1307.52  E(vib)   ...       0.01
freq.    1315.24  E(vib)   ...       0.01
freq.    1320.01  E(vib)   ...       0.01
freq.    1332.66  E(vib)   ...       0.01
freq.    1336.57  E(vib)   ...       0.01
freq.    1362.55  E(vib)   ...       0.01
freq.    1365.68  E(vib)   ...       0.01
freq.    1387.09  E(vib)   ...       0.00
freq.    1437.34  E(vib)   ...       0.00
freq.    1437.74  E(vib)   ...       0.00
freq.    1442.39  E(vib)   ...       0.00
freq.    1443.88  E(vib)   ...       0.00
freq.    1446.09  E(vib)   ...       0.00
freq.    1452.41  E(vib)   ...       0.00
freq.    1471.13  E(vib)   ...       0.00
freq.    1532.09  E(vib)   ...       0.00
freq.    1548.01  E(vib)   ...       0.00
freq.    1642.02  E(vib)   ...       0.00
freq.    1644.99  E(vib)   ...       0.00
freq.    1675.58  E(vib)   ...       0.00
freq.    1684.41  E(vib)   ...       0.00
freq.    1687.47  E(vib)   ...       0.00
freq.    1736.81  E(vib)   ...       0.00
freq.    1865.69  E(vib)   ...       0.00
freq.    1873.70  E(vib)   ...       0.00
freq.    3079.86  E(vib)   ...       0.00
freq.    3081.34  E(vib)   ...       0.00
freq.    3093.84  E(vib)   ...       0.00
freq.    3157.37  E(vib)   ...       0.00
freq.    3161.61  E(vib)   ...       0.00
freq.    3165.95  E(vib)   ...       0.00
freq.    3172.05  E(vib)   ...       0.00
freq.    3177.06  E(vib)   ...       0.00
freq.    3197.90  E(vib)   ...       0.00
freq.    3203.11  E(vib)   ...       0.00
freq.    3212.23  E(vib)   ...       0.00
freq.    3216.23  E(vib)   ...       0.00
freq.    3222.06  E(vib)   ...       0.00
freq.    3224.46  E(vib)   ...       0.00
freq.    3230.12  E(vib)   ...       0.00
freq.    3236.60  E(vib)   ...       0.00
freq.    3241.74  E(vib)   ...       0.00
freq.    3244.65  E(vib)   ...       0.00
freq.    3245.16  E(vib)   ...       0.00
freq.    3269.04  E(vib)   ...       0.00

------------
INNER ENERGY
------------

The inner energy is: U= E(el) + E(ZPE) + E(vib) + E(rot) + E(trans)
    E(el)   - is the total energy from the electronic structure calculation
              = E(kin-el) + E(nuc-el) + E(el-el) + E(nuc-nuc)
    E(ZPE)  - the the zero temperature vibrational energy from the frequency calculation
    E(vib)  - the the finite temperature correction to E(ZPE) due to population

Rotational constants in cm-1:     0.006276     0.003171     0.002203

                             ****ORCA TERMINATED NORMALLY****
TOTAL RUN TIME: 0 days 4 hours 37 minutes 59 seconds 665 msec
