                         Program Version 5.0.1 -  RELEASE  -
|  1> ! PAL4
|  2> ! RHF cc-pVTZ MP2 VeryTightSCF NormalOPT NoFrozenCore
|  3> ! Opt Freq
|  4> %pal nprocs 4
|  5> end
|  6> %elprop
|  7> Polar 1
|  8> end
|  9> %maxcore 38000
| 10> * xyz 0 1
| 11> C  1.187807  -0.550789  1.061768
| 12> C  1.115070  0.780526  1.051766
| 13> C  0.077558  1.165854  -0.018914
| 14> C  -1.287274  0.648939  0.469943
| 15> C  -1.214047  -0.690261  0.480358
| 16> C  0.199022  -1.062987  -0.002022
| 17> C  0.382695  0.056868  -1.057586
| 18> H  1.778951  -1.185015  1.716593
| 19> H  1.632458  1.485148  1.696938
| 20> H  0.089162  2.206204  -0.355803
| 21> H  0.325164  -2.101013  -0.322324
| 22> H  1.404092  0.108638  -1.449578
| 23> H  -0.349297  0.011313  -1.871735
| 24> S  -2.364081  -1.815553  1.193832
| 25> S  -2.552539  1.651152  1.171603
| 26> H  -2.055830  -2.872624  0.407921
| 27> H  -2.378301  2.717549  0.357599
| 28> *
| 29>
| 30>
| 31>                          ****END OF INPUT****
 Total Charge           Charge          ....    0
 Multiplicity           Mult            ....    1
 Number of Electrons    NEL             ....   82
MP2 TOTAL ENERGY:    -1066.509699170 Eh
FINAL SINGLE POINT ENERGY     -1066.509699169999
MP2 TOTAL ENERGY:    -1066.511533690 Eh
FINAL SINGLE POINT ENERGY     -1066.511533689595
MP2 TOTAL ENERGY:    -1066.511706367 Eh
FINAL SINGLE POINT ENERGY     -1066.511706367079
MP2 TOTAL ENERGY:    -1066.511728028 Eh
FINAL SINGLE POINT ENERGY     -1066.511728028333
MP2 TOTAL ENERGY:    -1066.511734404 Eh
FINAL SINGLE POINT ENERGY     -1066.511734404220
MP2 TOTAL ENERGY:    -1066.511735646 Eh
FINAL SINGLE POINT ENERGY     -1066.511735645884
                    ***********************HURRAY********************

CARTESIAN COORDINATES (ANGSTROEM)
---------------------------------
  C      1.153101   -0.553332    1.056922
  C      1.079143    0.780820    1.046425
  C      0.071678    1.160335   -0.036542
  C     -1.283508    0.650451    0.432085
  C     -1.208951   -0.694547    0.442668
  C      0.194696   -1.058815   -0.019081
  C      0.390065    0.056865   -1.062122
  H      1.722730   -1.179610    1.718091
  H      1.575515    1.476496    1.697190
  H      0.089580    2.189899   -0.372248
  H      0.326583   -2.085227   -0.338626
  H      1.410417    0.110560   -1.427159
  H     -0.328090    0.010651   -1.874705
  S     -2.325902   -1.782907    1.210845
  S     -2.514552    1.620369    1.184417
  H     -2.026856   -2.844732    0.457934
  H     -2.335037    2.696673    0.414264

 Multiplicity           Mult            ....    1
 Number of Electrons    NEL             ....   82
 Basis Dimension        Dim             ....  390

ORBITAL ENERGIES
----------------

  NO   OCC          E(Eh)            E(eV)
   0   2.0000     -91.963427     -2502.4521
   1   2.0000     -91.963414     -2502.4517
   2   2.0000     -11.260332      -306.4092
   3   2.0000     -11.258717      -306.3653
   4   2.0000     -11.249501      -306.1145
   5   2.0000     -11.249496      -306.1143
   6   2.0000     -11.233098      -305.6681
   7   2.0000     -11.231013      -305.6114
   8   2.0000     -11.229293      -305.5646
   9   2.0000      -8.965697      -243.9690
  10   2.0000      -8.965684      -243.9687
  11   2.0000      -6.647058      -180.8756
  12   2.0000      -6.647045      -180.8753
  13   2.0000      -6.646069      -180.8487
  14   2.0000      -6.646056      -180.8484
  15   2.0000      -6.645033      -180.8206
  16   2.0000      -6.645021      -180.8202
  17   2.0000      -1.215787       -33.0833
  18   2.0000      -1.074839       -29.2478
  19   2.0000      -1.028660       -27.9913
  20   2.0000      -0.983915       -26.7737
  21   2.0000      -0.948946       -25.8221
  22   2.0000      -0.910333       -24.7714
  23   2.0000      -0.792363       -21.5613
  24   2.0000      -0.748727       -20.3739
  25   2.0000      -0.703670       -19.1478
  26   2.0000      -0.664477       -18.0813
  27   2.0000      -0.663234       -18.0475
  28   2.0000      -0.576962       -15.6999
  29   2.0000      -0.558381       -15.1943
  30   2.0000      -0.548815       -14.9340
  31   2.0000      -0.544853       -14.8262
  32   2.0000      -0.522674       -14.2227
  33   2.0000      -0.520549       -14.1649
  34   2.0000      -0.487941       -13.2776
  35   2.0000      -0.482492       -13.1293
  36   2.0000      -0.447344       -12.1728
  37   2.0000      -0.423001       -11.5104
  38   2.0000      -0.381612       -10.3842
  39   2.0000      -0.360340        -9.8053
  40   2.0000      -0.288104        -7.8397
  41   0.0000       0.114472         3.1149
  42   0.0000       0.120104         3.2682
  43   0.0000       0.147952         4.0260
  44   0.0000       0.156240         4.2515
  45   0.0000       0.175507         4.7758

MULLIKEN ATOMIC CHARGES
-----------------------
   0 C :   -0.216791
   1 C :   -0.216802
   2 C :   -0.041358
   3 C :   -0.052061
   4 C :   -0.052000
   5 C :   -0.041401
   6 C :   -0.264152
   7 H :    0.178074
   8 H :    0.178075
   9 H :    0.139535
  10 H :    0.139536
  11 H :    0.128870
  12 H :    0.129387
  13 S :   -0.112544
  14 S :   -0.112598
  15 H :    0.108113
  16 H :    0.108115
Sum of atomic charges:   -0.0000000

LOEWDIN ATOMIC CHARGES
----------------------
   0 C :    0.063955
   1 C :    0.063958
   2 C :   -0.005862
   3 C :   -0.301245
   4 C :   -0.301227
   5 C :   -0.005860
   6 C :    0.093958
   7 H :   -0.044507
   8 H :   -0.044506
   9 H :   -0.031011
  10 H :   -0.031014
  11 H :   -0.026176
  12 H :   -0.025869
  13 S :    0.439960
  14 S :    0.439930
  15 H :   -0.142238
  16 H :   -0.142244

  Mayer bond orders larger than 0.100000
B(  0-C ,  1-C ) :   1.7098 B(  0-C ,  5-C ) :   0.8809 B(  0-C ,  7-H ) :   0.9030
B(  1-C ,  2-C ) :   0.8809 B(  1-C ,  8-H ) :   0.9030 B(  2-C ,  3-C ) :   0.8838
B(  2-C ,  6-C ) :   0.8898 B(  2-C ,  9-H ) :   0.9333 B(  3-C ,  4-C ) :   1.5452
B(  3-C , 14-S ) :   1.0140 B(  4-C ,  5-C ) :   0.8838 B(  4-C , 13-S ) :   1.0140
B(  5-C ,  6-C ) :   0.8897 B(  5-C , 10-H ) :   0.9333 B(  6-C , 11-H ) :   0.9292
B(  6-C , 12-H ) :   0.9279 B( 13-S , 15-H ) :   0.9503 B( 14-S , 16-H ) :   0.9503

MP2 TOTAL ENERGY:    -1066.511736044 Eh
FINAL SINGLE POINT ENERGY     -1066.511736044037

DIPOLE MOMENT
-------------
                                X             Y             Z
Electronic contribution:     -7.00660      -0.35732       3.97974
Nuclear contribution   :      7.69660       0.39095      -4.54972
                        -----------------------------------------
Total Dipole Moment    :      0.69001       0.03364      -0.56998
                        -----------------------------------------
Magnitude (a.u.)       :      0.89561
Magnitude (Debye)      :      2.27646

VIBRATIONAL FREQUENCIES
-----------------------

Scaling factor for frequencies =  1.000000000  (already applied!)

   0:         0.00 cm**-1
   1:         0.00 cm**-1
   2:         0.00 cm**-1
   3:         0.00 cm**-1
   4:         0.00 cm**-1
   5:         0.00 cm**-1
   6:       109.01 cm**-1
   7:       129.25 cm**-1
   8:       148.57 cm**-1
   9:       174.56 cm**-1
  10:       244.39 cm**-1
  11:       293.33 cm**-1
  12:       425.91 cm**-1
  13:       426.77 cm**-1
  14:       519.66 cm**-1
  15:       520.94 cm**-1
  16:       573.54 cm**-1
  17:       639.12 cm**-1
  18:       732.24 cm**-1
  19:       779.93 cm**-1
  20:       819.86 cm**-1
  21:       888.36 cm**-1
  22:       901.93 cm**-1
  23:       916.40 cm**-1
  24:       916.60 cm**-1
  25:       933.20 cm**-1
  26:       958.07 cm**-1
  27:       979.22 cm**-1
  28:       993.26 cm**-1
  29:      1026.55 cm**-1
  30:      1071.00 cm**-1
  31:      1127.74 cm**-1
  32:      1132.73 cm**-1
  33:      1156.49 cm**-1
  34:      1185.42 cm**-1
  35:      1231.29 cm**-1
  36:      1269.81 cm**-1
  37:      1276.00 cm**-1
  38:      1289.88 cm**-1
  39:      1330.40 cm**-1
  40:      1495.56 cm**-1
  41:      1591.29 cm**-1
  42:      1614.23 cm**-1
  43:      2745.91 cm**-1
  44:      2746.81 cm**-1
  45:      3105.57 cm**-1
  46:      3155.89 cm**-1
  47:      3159.09 cm**-1
  48:      3172.99 cm**-1
  49:      3257.76 cm**-1
  50:      3287.30 cm**-1

IR SPECTRUM
-----------

 Mode   freq       eps      Int      T**2         TX        TY        TZ
       cm**-1   L/(mol*cm) km/mol    a.u.
----------------------------------------------------------------------------
  6:    109.01   0.000696    3.52  0.001992  (-0.002459  0.044561 -0.000370)
  7:    129.25   0.000175    0.89  0.000423  (-0.004038 -0.000054  0.020163)
  8:    148.57   0.000019    0.10  0.000041  (-0.002235 -0.000199 -0.005959)
  9:    174.56   0.002559   12.93  0.004575  ( 0.003735 -0.067534  0.000545)
 10:    244.39   0.005182   26.19  0.006617  ( 0.052126  0.003419  0.062358)
 11:    293.33   0.000202    1.02  0.000215  (-0.000793  0.014627 -0.000104)
 12:    425.91   0.000402    2.03  0.000294  (-0.017077 -0.000932 -0.001380)
 13:    426.77   0.000029    0.15  0.000021  ( 0.000157 -0.004588  0.000024)
 14:    519.66   0.000919    4.64  0.000552  (-0.023433 -0.001413  0.000839)
 15:    520.94   0.000147    0.74  0.000088  (-0.000848  0.009342 -0.000062)
 16:    573.54   0.000535    2.70  0.000291  ( 0.004135  0.000100 -0.016554)
 17:    639.12   0.000546    2.76  0.000267  (-0.000896  0.016308 -0.000130)
 18:    732.24   0.009881   49.93  0.004211  (-0.049455 -0.002413  0.041944)
 19:    779.93   0.002389   12.07  0.000956  (-0.001708  0.030870 -0.000246)
 20:    819.86   0.001739    8.79  0.000662  ( 0.019557  0.000951 -0.016687)
 21:    888.36   0.000177    0.89  0.000062  (-0.000438  0.007875 -0.000072)
 22:    901.93   0.000617    3.12  0.000213  (-0.000807  0.014589 -0.000111)
 23:    916.40   0.000064    0.32  0.000022  ( 0.000225 -0.004672  0.000106)
 24:    916.60   0.000301    1.52  0.000102  (-0.004039 -0.000118  0.009274)
 25:    933.20   0.000588    2.97  0.000197  ( 0.001358  0.000197  0.013951)
 26:    958.07   0.000082    0.42  0.000027  (-0.004367 -0.000273 -0.002763)
 27:    979.22   0.000067    0.34  0.000021  ( 0.000259 -0.004609  0.000042)
 28:    993.26   0.000054    0.27  0.000017  (-0.000222  0.004105 -0.000025)
 29:   1026.55   0.000317    1.60  0.000096  (-0.009459 -0.000547 -0.002546)
 30:   1071.00   0.000008    0.04  0.000002  ( 0.001353  0.000093  0.000661)
 31:   1127.74   0.004576   23.13  0.001266  ( 0.001970 -0.035530  0.000280)
 32:   1132.73   0.000074    0.37  0.000020  (-0.002026 -0.000153 -0.004023)
 33:   1156.49   0.000530    2.68  0.000143  (-0.000659  0.011945 -0.000093)
 34:   1185.42   0.001037    5.24  0.000273  (-0.000916  0.016493 -0.000130)
 35:   1231.29   0.000231    1.17  0.000059  (-0.003772 -0.000252 -0.006658)
 36:   1269.81   0.000745    3.76  0.000183  (-0.000039  0.000114  0.013527)
 37:   1276.00   0.000022    0.11  0.000005  ( 0.000126 -0.002303  0.000014)
 38:   1289.88   0.000449    2.27  0.000109  ( 0.000578 -0.010406  0.000088)
 39:   1330.40   0.004605   23.27  0.001080  ( 0.001815 -0.032813  0.000246)
 40:   1495.56   0.000786    3.97  0.000164  (-0.004563 -0.000160  0.011961)
 41:   1591.29   0.000845    4.27  0.000166  ( 0.001907  0.000014 -0.012735)
 42:   1614.23   0.003669   18.54  0.000709  (-0.023398 -0.001209  0.012664)
 43:   2745.91   0.000045    0.22  0.000005  ( 0.002187 -0.000050  0.000526)
 44:   2746.81   0.000405    2.05  0.000046  ( 0.000323 -0.006778  0.000040)
 45:   3105.57   0.005770   29.16  0.000580  ( 0.006595  0.000184 -0.023157)
 46:   3155.89   0.006621   33.46  0.000655  (-0.001423  0.025548 -0.000170)
 47:   3159.09   0.001162    5.87  0.000115  ( 0.002909  0.000155 -0.010309)
 48:   3172.99   0.004071   20.57  0.000400  ( 0.019596  0.001115  0.003890)
 49:   3257.76   0.000131    0.66  0.000013  ( 0.000200 -0.003537  0.000037)
 50:   3287.30   0.000908    4.59  0.000086  (-0.007568 -0.000461 -0.005354)

--------------------------
THERMOCHEMISTRY AT 298.15K
--------------------------

Temperature         ... 298.15 K
Pressure            ... 1.00 atm
Total Mass          ... 156.26 AMU

Throughout the following assumptions are being made:
  (1) The electronic state is orbitally nondegenerate
  (2) There are no thermally accessible electronically excited states
  (3) Hindered rotations indicated by low frequency modes are not
      treated as such but are treated as vibrations and this may
      cause some error
  (4) All equations used are the standard statistical mechanics
      equations for an ideal gas
  (5) All vibrations are strictly harmonic

freq.     109.01  E(vib)   ...       0.45
freq.     129.25  E(vib)   ...       0.43
freq.     148.57  E(vib)   ...       0.41
freq.     174.56  E(vib)   ...       0.38
freq.     244.39  E(vib)   ...       0.31
freq.     293.33  E(vib)   ...       0.27
freq.     425.91  E(vib)   ...       0.18
freq.     426.77  E(vib)   ...       0.18
freq.     519.66  E(vib)   ...       0.13
freq.     520.94  E(vib)   ...       0.13
freq.     573.54  E(vib)   ...       0.11
freq.     639.12  E(vib)   ...       0.09
freq.     732.24  E(vib)   ...       0.06
freq.     779.93  E(vib)   ...       0.05
freq.     819.86  E(vib)   ...       0.05
freq.     888.36  E(vib)   ...       0.04
freq.     901.93  E(vib)   ...       0.03
freq.     916.40  E(vib)   ...       0.03
freq.     916.60  E(vib)   ...       0.03
freq.     933.20  E(vib)   ...       0.03
freq.     958.07  E(vib)   ...       0.03
freq.     979.22  E(vib)   ...       0.03
freq.     993.26  E(vib)   ...       0.02
freq.    1026.55  E(vib)   ...       0.02
freq.    1071.00  E(vib)   ...       0.02
freq.    1127.74  E(vib)   ...       0.01
freq.    1132.73  E(vib)   ...       0.01
freq.    1156.49  E(vib)   ...       0.01
freq.    1185.42  E(vib)   ...       0.01
freq.    1231.29  E(vib)   ...       0.01
freq.    1269.81  E(vib)   ...       0.01
freq.    1276.00  E(vib)   ...       0.01
freq.    1289.88  E(vib)   ...       0.01
freq.    1330.40  E(vib)   ...       0.01
freq.    1495.56  E(vib)   ...       0.00
freq.    1591.29  E(vib)   ...       0.00
freq.    1614.23  E(vib)   ...       0.00
freq.    2745.91  E(vib)   ...       0.00
freq.    2746.81  E(vib)   ...       0.00
freq.    3105.57  E(vib)   ...       0.00
freq.    3155.89  E(vib)   ...       0.00
freq.    3159.09  E(vib)   ...       0.00
freq.    3172.99  E(vib)   ...       0.00
freq.    3257.76  E(vib)   ...       0.00
freq.    3287.30  E(vib)   ...       0.00

------------
INNER ENERGY
------------

The inner energy is: U= E(el) + E(ZPE) + E(vib) + E(rot) + E(trans)
    E(el)   - is the total energy from the electronic structure calculation
              = E(kin-el) + E(nuc-el) + E(el-el) + E(nuc-nuc)
    E(ZPE)  - the the zero temperature vibrational energy from the frequency calculation
    E(vib)  - the the finite temperature correction to E(ZPE) due to population
              of excited vibrational states
    E(rot)  - is the rotational thermal energy
    E(trans)- is the translational thermal energy

Summary of contributions to the inner energy U:
Electronic energy                ...  -1066.51173604 Eh
Zero point energy                ...      0.12861122 Eh      80.70 kcal/mol
Thermal vibrational correction   ...      0.00572514 Eh       3.59 kcal/mol
Thermal rotational correction    ...      0.00141627 Eh       0.89 kcal/mol
Thermal translational correction ...      0.00141627 Eh       0.89 kcal/mol
-----------------------------------------------------------------------
Total thermal energy                  -1066.37456714 Eh

Summary of corrections to the electronic energy:
(perhaps to be used in another calculation)
Total thermal correction                  0.00855769 Eh       5.37 kcal/mol
Non-thermal (ZPE) correction              0.12861122 Eh      80.70 kcal/mol
-----------------------------------------------------------------------
Total correction                          0.13716890 Eh      86.07 kcal/mol

--------
ENTHALPY
--------

The enthalpy is H = U + kB*T
                kB is Boltzmann's constant
Total free energy                 ...  -1066.37456714 Eh
Thermal Enthalpy correction       ...      0.00094421 Eh       0.59 kcal/mol
-----------------------------------------------------------------------
Total Enthalpy                    ...  -1066.37362293 Eh

Note: Only C1 symmetry has been detected, increase convergence thresholds
      if your molecule has a higher symmetry. Symmetry factor of 1.0 is
      used for the rotational entropy correction.

Note: Rotational entropy computed according to Herzberg
Infrared and Raman Spectra, Chapter V,1, Van Nostrand Reinhold, 1945
Point Group:  C1, Symmetry Number:   1
Rotational constants in cm-1:     0.051451     0.041638     0.027683

Vibrational entropy computed according to the QRRHO of S. Grimme
Chem.Eur.J. 2012 18 9955

-------
ENTROPY
-------

The entropy contributions are T*S = T*(S(el)+S(vib)+S(rot)+S(trans))
     S(el)   - electronic entropy
     S(vib)  - vibrational entropy
     S(rot)  - rotational entropy
     S(trans)- translational entropy
The entropies will be listed as multiplied by the temperature to get
units of energy

Electronic entropy                ...      0.00000000 Eh      0.00 kcal/mol
Vibrational entropy               ...      0.00962148 Eh      6.04 kcal/mol
Rotational entropy                ...      0.01410557 Eh      8.85 kcal/mol
Translational entropy             ...      0.01950341 Eh     12.24 kcal/mol
-----------------------------------------------------------------------
Final entropy term                ...      0.04323046 Eh     27.13 kcal/mol

In case the symmetry of your molecule has not been determined correctly
or in case you have a reason to use a different symmetry number we print
out the resulting rotational entropy values for sn=1,12 :
 --------------------------------------------------------
|  sn= 1 | S(rot)=       0.01410557 Eh      8.85 kcal/mol|
|  sn= 2 | S(rot)=       0.01345111 Eh      8.44 kcal/mol|
|  sn= 3 | S(rot)=       0.01306828 Eh      8.20 kcal/mol|
|  sn= 4 | S(rot)=       0.01279665 Eh      8.03 kcal/mol|
|  sn= 5 | S(rot)=       0.01258597 Eh      7.90 kcal/mol|
|  sn= 6 | S(rot)=       0.01241382 Eh      7.79 kcal/mol|
|  sn= 7 | S(rot)=       0.01226828 Eh      7.70 kcal/mol|
|  sn= 8 | S(rot)=       0.01214220 Eh      7.62 kcal/mol|
|  sn= 9 | S(rot)=       0.01203099 Eh      7.55 kcal/mol|
|  sn=10 | S(rot)=       0.01193151 Eh      7.49 kcal/mol|
|  sn=11 | S(rot)=       0.01184152 Eh      7.43 kcal/mol|
|  sn=12 | S(rot)=       0.01175937 Eh      7.38 kcal/mol|
 --------------------------------------------------------

-------------------
GIBBS FREE ENERGY
-------------------

                             ****ORCA TERMINATED NORMALLY****
TOTAL RUN TIME: 1 days 7 hours 56 minutes 29 seconds 898 msec
