                         Program Version 5.0.1 -  RELEASE  -
|  1> ! PAL4
|  2> ! RKS pc-2 M062X VeryTightSCF TightOPT
|  3> ! Opt Freq
|  4> %method
|  5> end
|  6> %maxcore 2400
|  7> * xyz 0 1
|  8> C  1.203070  -0.785160  0.489290
|  9> C  1.236190  0.558590  0.588830
| 10> C  -0.015470  1.075650  -0.091650
| 11> C  -1.237180  0.617530  0.727680
| 12> C  -1.290660  -0.740730  0.574980
| 13> C  -0.072670  -1.146160  -0.259440
| 14> C  -2.096230  1.595690  1.435230
| 15> C  -2.996010  1.216710  2.434090
| 16> C  -3.944490  2.112680  2.949610
| 17> C  -3.967720  3.452570  2.553690
| 18> C  -2.982070  3.875020  1.666680
| 19> C  -2.059850  2.962270  1.122650
| 20> S  -5.332110  4.431980  3.140930
| 21> C  -4.858420  6.120600  3.090190
| 22> O  -3.732470  6.515770  2.814250
| 23> C  -5.972540  7.075630  3.432890
| 24> C  -2.229380  -1.774920  1.037920
| 25> C  -1.777070  -3.038310  1.437660
| 26> C  -2.663700  -3.984770  1.976260
| 27> C  -4.023350  -3.691020  2.137890
| 28> C  -4.490230  -2.474270  1.644170
| 29> C  -3.607920  -1.545610  1.074270
| 30> S  -5.067280  -4.931570  2.876700
| 31> C  -6.379800  -4.063670  3.671530
| 32> O  -6.348550  -2.869860  3.938750
| 33> C  -7.569320  -4.928290  4.005890
| 34> C  -0.091930  0.043420  -1.223620
| 35> H  1.915110  -1.480890  0.907790
| 36> H  1.969510  1.160410  1.102840
| 37> H  0.032690  2.092540  -0.475380
| 38> H  -0.082210  -2.112150  -0.764880
| 39> H  -3.011280  0.201950  2.819920
| 40> H  -4.686450  1.728650  3.648050
| 41> H  -2.915580  4.908590  1.340550
| 42> H  -1.336400  3.365630  0.421840
| 43> H  -6.899820  6.562000  3.702820
| 44> H  -6.173500  7.720120  2.572770
| 45> H  -5.661210  7.686180  4.285070
| 46> H  -0.724840  -3.302890  1.363410
| 47> H  -2.268590  -4.951310  2.283860
| 48> H  -5.541020  -2.205940  1.707200
| 49> H  -4.020040  -0.612690  0.695410
| 50> H  -7.386310  -5.988220  3.807040
| 51> H  -8.427240  -4.606030  3.408860
| 52> H  -7.801880  -4.818020  5.068900
| 53> H  0.768930  0.076930  -1.905250
| 54> H  -1.012080  0.113270  -1.822530
| 55> *
| 56>
| 57>
| 58>                          ****END OF INPUT****
 Total Charge           Charge          ....    0
 Multiplicity           Mult            ....    1
 Number of Electrons    NEL             ....  206
FINAL SINGLE POINT ENERGY     -1835.256897302776
FINAL SINGLE POINT ENERGY     -1835.268090742623
FINAL SINGLE POINT ENERGY     -1835.272647338305
FINAL SINGLE POINT ENERGY     -1835.275413458492
FINAL SINGLE POINT ENERGY     -1835.277147558968
FINAL SINGLE POINT ENERGY     -1835.278221714626
FINAL SINGLE POINT ENERGY     -1835.278479890700
FINAL SINGLE POINT ENERGY     -1835.278722512901
FINAL SINGLE POINT ENERGY     -1835.278894361238
FINAL SINGLE POINT ENERGY     -1835.278811236490
FINAL SINGLE POINT ENERGY     -1835.279183788938
FINAL SINGLE POINT ENERGY     -1835.279182688892
FINAL SINGLE POINT ENERGY     -1835.279185907991
FINAL SINGLE POINT ENERGY     -1835.279184991616
FINAL SINGLE POINT ENERGY     -1835.279185432497
FINAL SINGLE POINT ENERGY     -1835.279184467972
FINAL SINGLE POINT ENERGY     -1835.279182748066
FINAL SINGLE POINT ENERGY     -1835.279182369486
FINAL SINGLE POINT ENERGY     -1835.279182385020
                    ***********************HURRAY********************

CARTESIAN COORDINATES (ANGSTROEM)
---------------------------------
  C      1.080089   -0.581254    1.003139
  C      1.011656    0.743610    1.013395
  C     -0.064195    1.146576   -0.004082
  C     -1.407163    0.636953    0.557280
  C     -1.346117   -0.702598    0.535882
  C      0.044906   -1.075195   -0.015073
  C     -2.419340    1.543636    1.110647
  C     -3.067820    1.265823    2.315421
  C     -4.002123    2.145598    2.834894
  C     -4.311535    3.317820    2.152948
  C     -3.677294    3.606695    0.950750
  C     -2.731052    2.732379    0.446660
  S     -5.534293    4.410123    2.816246
  C     -4.558214    5.876550    3.164092
  O     -3.401220    5.989793    2.890105
  C     -5.368548    6.943256    3.859459
  C     -2.313760   -1.709201    0.971673
  C     -1.871499   -2.905986    1.536061
  C     -2.773770   -3.865153    1.968489
  C     -4.136546   -3.652773    1.813053
  C     -4.592421   -2.477490    1.221715
  C     -3.689683   -1.516219    0.813361
  S     -5.272380   -4.899208    2.341229
  C     -6.234964   -3.998985    3.560438
  O     -6.066242   -2.845657    3.822841
  C     -7.296575   -4.855992    4.205467
  C      0.185631    0.050767   -1.066003
  H      1.687408   -1.221601    1.623988
  H      1.546468    1.435773    1.644789
  H     -0.053740    2.185485   -0.317394
  H      0.145128   -2.101356   -0.355087
  H     -2.827061    0.359604    2.854213
  H     -4.487082    1.929245    3.776786
  H     -3.919851    4.515865    0.419318
  H     -2.238153    2.964943   -0.487951
  H     -6.437892    6.773211    3.764275
  H     -5.098574    7.912664    3.447645
  H     -5.100217    6.930526    4.915511
  H     -0.810394   -3.078117    1.661687
  H     -2.420987   -4.777431    2.429931
  H     -5.653227   -2.319951    1.089513
  H     -4.046845   -0.603767    0.355778
  H     -7.220379   -5.900472    3.915811
  H     -8.270219   -4.466401    3.911518
  H     -7.203298   -4.758560    5.285135
  H      1.179547    0.099564   -1.506537
  H     -0.585528    0.014808   -1.833408

 Multiplicity           Mult            ....    1
 Number of Electrons    NEL             ....  206
 Basis Dimension        Dim             .... 1098

ORBITAL ENERGIES
----------------

  NO   OCC          E(Eh)            E(eV)
   0   2.0000     -89.900060     -2446.3050
   1   2.0000     -89.897065     -2446.2235
   2   2.0000     -19.629090      -534.1347
   3   2.0000     -19.627242      -534.0844
   4   2.0000     -10.658631      -290.0361
   5   2.0000     -10.656380      -289.9748
   6   2.0000     -10.575449      -287.7726
   7   2.0000     -10.573782      -287.7272
   8   2.0000     -10.559453      -287.3373
   9   2.0000     -10.558361      -287.3076
  10   2.0000     -10.555322      -287.2249
  11   2.0000     -10.555125      -287.2195
  12   2.0000     -10.554993      -287.2160
  13   2.0000     -10.553404      -287.1727
  14   2.0000     -10.553356      -287.1714
  15   2.0000     -10.550624      -287.0971
  16   2.0000     -10.550225      -287.0862
  17   2.0000     -10.549716      -287.0724
  18   2.0000     -10.549241      -287.0595
  19   2.0000     -10.548829      -287.0482
  20   2.0000     -10.547549      -287.0134
  21   2.0000     -10.547211      -287.0042
  22   2.0000     -10.545954      -286.9700
  23   2.0000     -10.545068      -286.9459
  24   2.0000     -10.543847      -286.9127
  25   2.0000     -10.538294      -286.7616
  26   2.0000     -10.537028      -286.7271
  27   2.0000      -8.273242      -225.1264
  28   2.0000      -8.270249      -225.0449
  29   2.0000      -6.193748      -168.5404
  30   2.0000      -6.191928      -168.4909
  31   2.0000      -6.190785      -168.4598
  32   2.0000      -6.190593      -168.4546
  33   2.0000      -6.188926      -168.4092
  34   2.0000      -6.187558      -168.3720
  35   2.0000      -1.191278       -32.4163
  36   2.0000      -1.189161       -32.3587
  37   2.0000      -1.014312       -27.6008
  38   2.0000      -0.980751       -26.6876
  39   2.0000      -0.978773       -26.6338
  40   2.0000      -0.913388       -24.8545
  41   2.0000      -0.905092       -24.6288
  42   2.0000      -0.876255       -23.8441
  43   2.0000      -0.866404       -23.5761
  44   2.0000      -0.856222       -23.2990
  45   2.0000      -0.853321       -23.2200
  46   2.0000      -0.844222       -22.9724
  47   2.0000      -0.822336       -22.3769
  48   2.0000      -0.810623       -22.0582
  49   2.0000      -0.789540       -21.4845
  50   2.0000      -0.776337       -21.1252
  51   2.0000      -0.709236       -19.2993
  52   2.0000      -0.701790       -19.0967
  53   2.0000      -0.698974       -19.0201
  54   2.0000      -0.685491       -18.6532
  55   2.0000      -0.650552       -17.7024
  56   2.0000      -0.636060       -17.3081
  57   2.0000      -0.629630       -17.1331
  58   2.0000      -0.625051       -17.0085
  59   2.0000      -0.610826       -16.6214
  60   2.0000      -0.596917       -16.2429
  61   2.0000      -0.578810       -15.7502
  62   2.0000      -0.563513       -15.3340
  63   2.0000      -0.559063       -15.2129
  64   2.0000      -0.546345       -14.8668
  65   2.0000      -0.542924       -14.7737
  66   2.0000      -0.535655       -14.5759
  67   2.0000      -0.534290       -14.5388
  68   2.0000      -0.531143       -14.4531
  69   2.0000      -0.527708       -14.3597
  70   2.0000      -0.521164       -14.1816
  71   2.0000      -0.520019       -14.1504
  72   2.0000      -0.511772       -13.9260
  73   2.0000      -0.503220       -13.6933
  74   2.0000      -0.498172       -13.5559
  75   2.0000      -0.495198       -13.4750
  76   2.0000      -0.478424       -13.0186
  77   2.0000      -0.477512       -12.9938
  78   2.0000      -0.474323       -12.9070
  79   2.0000      -0.465710       -12.6726
  80   2.0000      -0.453481       -12.3398
  81   2.0000      -0.448598       -12.2070
  82   2.0000      -0.446886       -12.1604
  83   2.0000      -0.441691       -12.0190
  84   2.0000      -0.439577       -11.9615
  85   2.0000      -0.432909       -11.7800
  86   2.0000      -0.422119       -11.4864
  87   2.0000      -0.414380       -11.2759
  88   2.0000      -0.408845       -11.1252
  89   2.0000      -0.405054       -11.0221
  90   2.0000      -0.400363       -10.8944
  91   2.0000      -0.396104       -10.7785
  92   2.0000      -0.384086       -10.4515
  93   2.0000      -0.359858        -9.7922
  94   2.0000      -0.345914        -9.4128
  95   2.0000      -0.332381        -9.0445
  96   2.0000      -0.326258        -8.8779
  97   2.0000      -0.321100        -8.7376
  98   2.0000      -0.318247        -8.6599
  99   2.0000      -0.311683        -8.4813
 100   2.0000      -0.307801        -8.3757
 101   2.0000      -0.295730        -8.0472
 102   2.0000      -0.257009        -6.9936
 103   0.0000      -0.033848        -0.9210
 104   0.0000       0.004048         0.1102
 105   0.0000       0.005676         0.1545
 106   0.0000       0.015239         0.4147
 107   0.0000       0.020955         0.5702

MULLIKEN ATOMIC CHARGES
-----------------------
   0 C :    0.034532
   1 C :    0.021486
   2 C :   -0.163530
   3 C :    0.074196
   4 C :    0.185907
   5 C :   -0.216474
   6 C :    0.094355
   7 C :   -0.016663
   8 C :   -0.034281
   9 C :    0.020127
  10 C :   -0.025096
  11 C :   -0.052475
  12 S :   -0.044461
  13 C :    0.322135
  14 O :   -0.388030
  15 C :   -0.122288
  16 C :    0.096576
  17 C :   -0.048156
  18 C :   -0.045881
  19 C :    0.036655
  20 C :   -0.038033
  21 C :   -0.040745
  22 S :   -0.043532
  23 C :    0.330068
  24 O :   -0.393684
  25 C :   -0.115984
  26 C :    0.040133
  27 H :    0.024845
  28 H :    0.032136
  29 H :   -0.011435
  30 H :    0.008931
  31 H :    0.039338
  32 H :    0.012385
  33 H :    0.022340
  34 H :    0.001735
  35 H :    0.017790
  36 H :    0.051303
  37 H :    0.057476
  38 H :    0.003571
  39 H :    0.004070
  40 H :    0.026380
  41 H :    0.040051
  42 H :    0.015121
  43 H :    0.053399
  44 H :    0.052758
  45 H :    0.035203
  46 H :    0.045743
Sum of atomic charges:   -0.0000000

LOEWDIN ATOMIC CHARGES
----------------------
   0 C :    0.032841
   1 C :    0.041992
   2 C :   -0.002083
   3 C :   -0.030630
   4 C :   -0.034236
   5 C :   -0.008425
   6 C :   -0.048794
   7 C :    0.031235
   8 C :   -0.004157
   9 C :   -0.282144
  10 C :    0.001157
  11 C :    0.023817
  12 S :    0.575833
  13 C :   -0.308426
  14 O :   -0.031245
  15 C :    0.012170
  16 C :   -0.046427
  17 C :    0.020768
  18 C :   -0.010095
  19 C :   -0.283423
  20 C :    0.003013
  21 C :    0.030555
  22 S :    0.576836
  23 C :   -0.308097
  24 O :   -0.031778
  25 C :    0.013403
  26 C :    0.070550
  27 H :   -0.017131
  28 H :   -0.014580
  29 H :   -0.012081
  30 H :   -0.009995
  31 H :    0.010144
  32 H :   -0.001882
  33 H :   -0.000352
  34 H :   -0.000110
  35 H :   -0.004188
  36 H :    0.009945
  37 H :    0.015384
  38 H :    0.000441
  39 H :   -0.004711
  40 H :    0.000938
  41 H :    0.009142
  42 H :   -0.005379
  43 H :    0.013840
  44 H :    0.012895
  45 H :   -0.003867
  46 H :   -0.002662

  Mayer bond orders larger than 0.100000
B(  0-C ,  1-C ) :   1.9582 B(  0-C ,  5-C ) :   0.9624 B(  0-C , 27-H ) :   1.0049
B(  1-C ,  2-C ) :   0.9827 B(  1-C , 28-H ) :   1.0106 B(  2-C ,  3-C ) :   0.9898
B(  2-C , 26-C ) :   0.9615 B(  2-C , 29-H ) :   1.0565 B(  3-C ,  4-C ) :   1.8223
B(  3-C ,  6-C ) :   1.0177 B(  4-C ,  5-C ) :   0.9508 B(  4-C , 16-C ) :   1.0395
B(  5-C , 26-C ) :   0.9640 B(  5-C , 30-H ) :   1.0748 B(  6-C ,  7-C ) :   1.3735
B(  6-C , 11-C ) :   1.4016 B(  7-C ,  8-C ) :   1.4964 B(  7-C , 31-H ) :   1.0153
B(  8-C ,  9-C ) :   1.4267 B(  8-C , 32-H ) :   1.0035 B(  9-C , 10-C ) :   1.3828
B(  9-C , 12-S ) :   1.0220 B( 10-C , 11-C ) :   1.4886 B( 10-C , 33-H ) :   0.9997
B( 11-C , 34-H ) :   1.0151 B( 12-S , 13-C ) :   1.0657 B( 12-S , 14-O ) :   0.1033
B( 13-C , 14-O ) :   1.9476 B( 13-C , 15-C ) :   0.9249 B( 15-C , 35-H ) :   0.9980
B( 15-C , 36-H ) :   1.0060 B( 15-C , 37-H ) :   0.9948 B( 16-C , 17-C ) :   1.3837
B( 16-C , 21-C ) :   1.3733 B( 17-C , 18-C ) :   1.4876 B( 17-C , 38-H ) :   1.0193
B( 18-C , 19-C ) :   1.4383 B( 18-C , 39-H ) :   1.0003 B( 19-C , 20-C ) :   1.3761
B( 19-C , 22-S ) :   1.0065 B( 20-C , 21-C ) :   1.5138 B( 20-C , 40-H ) :   1.0005
B( 21-C , 41-H ) :   1.0111 B( 22-S , 23-C ) :   1.0661 B( 22-S , 24-O ) :   0.1040
B( 23-C , 24-O ) :   1.9359 B( 23-C , 25-C ) :   0.9263 B( 25-C , 42-H ) :   0.9985
B( 25-C , 43-H ) :   0.9962 B( 25-C , 44-H ) :   1.0050 B( 26-C , 45-H ) :   1.0250
B( 26-C , 46-H ) :   1.0258

FINAL SINGLE POINT ENERGY     -1835.279182417376

DIPOLE MOMENT
-------------
                                X             Y             Z
Electronic contribution:     -5.62282      -2.56464       0.51337
Nuclear contribution   :      5.34559       2.12423      -0.53153
                        -----------------------------------------
Total Dipole Moment    :     -0.27723      -0.44041      -0.01816
                        -----------------------------------------
Magnitude (a.u.)       :      0.52072
Magnitude (Debye)      :      1.32355

VIBRATIONAL FREQUENCIES
-----------------------

Scaling factor for frequencies =  1.000000000  (already applied!)

   0:         0.00 cm**-1
   1:         0.00 cm**-1
   2:         0.00 cm**-1
   3:         0.00 cm**-1
   4:         0.00 cm**-1
   5:         0.00 cm**-1
   6:       -49.59 cm**-1 ***imaginary mode***
   7:       -35.22 cm**-1 ***imaginary mode***
   8:        20.82 cm**-1
   9:        23.37 cm**-1
  10:        36.59 cm**-1
  11:        43.05 cm**-1
  12:        57.48 cm**-1
  13:        60.74 cm**-1
  14:        68.36 cm**-1
  15:        75.97 cm**-1
  16:        86.84 cm**-1
  17:        94.72 cm**-1
  18:        96.17 cm**-1
  19:       125.47 cm**-1
  20:       165.63 cm**-1
  21:       186.95 cm**-1
  22:       211.36 cm**-1
  23:       218.30 cm**-1
  24:       254.01 cm**-1
  25:       283.46 cm**-1
  26:       324.18 cm**-1
  27:       336.07 cm**-1
  28:       338.94 cm**-1
  29:       344.94 cm**-1
  30:       372.85 cm**-1
  31:       414.78 cm**-1
  32:       419.87 cm**-1
  33:       425.59 cm**-1
  34:       469.38 cm**-1
  35:       473.20 cm**-1
  36:       500.83 cm**-1
  37:       502.98 cm**-1
  38:       525.48 cm**-1
  39:       539.57 cm**-1
  40:       542.77 cm**-1
  41:       548.39 cm**-1
  42:       570.25 cm**-1
  43:       602.60 cm**-1
  44:       606.59 cm**-1
  45:       627.16 cm**-1
  46:       629.11 cm**-1
  47:       645.21 cm**-1
  48:       653.62 cm**-1
  49:       704.59 cm**-1
  50:       729.66 cm**-1
  51:       737.60 cm**-1
  52:       751.33 cm**-1
  53:       764.19 cm**-1
  54:       767.36 cm**-1
  55:       812.75 cm**-1
  56:       833.20 cm**-1
  57:       857.59 cm**-1
  58:       862.42 cm**-1
  59:       866.38 cm**-1
  60:       874.28 cm**-1
  61:       890.71 cm**-1
  62:       913.04 cm**-1
  63:       932.06 cm**-1
  64:       947.68 cm**-1
  65:       961.68 cm**-1
  66:       983.54 cm**-1
  67:       985.53 cm**-1
  68:       991.82 cm**-1
  69:       994.25 cm**-1
  70:       995.21 cm**-1
  71:       999.04 cm**-1
  72:      1011.25 cm**-1
  73:      1013.81 cm**-1
  74:      1019.80 cm**-1
  75:      1025.59 cm**-1
  76:      1036.59 cm**-1
  77:      1041.41 cm**-1
  78:      1052.57 cm**-1
  79:      1067.71 cm**-1
  80:      1108.93 cm**-1
  81:      1125.92 cm**-1
  82:      1127.60 cm**-1
  83:      1136.12 cm**-1
  84:      1141.71 cm**-1
  85:      1145.18 cm**-1
  86:      1146.34 cm**-1
  87:      1154.60 cm**-1
  88:      1180.59 cm**-1
  89:      1213.00 cm**-1
  90:      1223.18 cm**-1
  91:      1234.25 cm**-1
  92:      1262.01 cm**-1
  93:      1271.14 cm**-1
  94:      1274.90 cm**-1
  95:      1279.96 cm**-1
  96:      1294.80 cm**-1
  97:      1301.67 cm**-1
  98:      1328.64 cm**-1
  99:      1333.60 cm**-1
 100:      1342.21 cm**-1
 101:      1380.25 cm**-1
 102:      1387.51 cm**-1
 103:      1389.76 cm**-1
 104:      1442.44 cm**-1
 105:      1444.55 cm**-1
 106:      1471.49 cm**-1
 107:      1472.87 cm**-1
 108:      1478.32 cm**-1
 109:      1479.19 cm**-1
 110:      1502.50 cm**-1
 111:      1537.41 cm**-1
 112:      1548.49 cm**-1
 113:      1623.54 cm**-1
 114:      1625.93 cm**-1
 115:      1659.81 cm**-1
 116:      1666.67 cm**-1
 117:      1669.13 cm**-1
 118:      1719.07 cm**-1
 119:      1824.31 cm**-1
 120:      1827.93 cm**-1
 121:      3084.90 cm**-1
 122:      3085.61 cm**-1
 123:      3099.01 cm**-1
 124:      3164.50 cm**-1
 125:      3166.47 cm**-1
 126:      3169.54 cm**-1
 127:      3170.41 cm**-1
 128:      3170.77 cm**-1
 129:      3190.10 cm**-1
 130:      3190.57 cm**-1
 131:      3208.63 cm**-1
 132:      3213.10 cm**-1
 133:      3219.02 cm**-1
 134:      3220.79 cm**-1
 135:      3226.00 cm**-1
 136:      3232.92 cm**-1
 137:      3235.60 cm**-1
 138:      3237.61 cm**-1
 139:      3241.01 cm**-1
 140:      3266.12 cm**-1

IR SPECTRUM
-----------

 Mode   freq       eps      Int      T**2         TX        TY        TZ
       cm**-1   L/(mol*cm) km/mol    a.u.
----------------------------------------------------------------------------
  8:     20.82   0.000148    0.75  0.002211  ( 0.022291 -0.023326  0.034205)
  9:     23.37   0.000160    0.81  0.002142  ( 0.001387 -0.024271 -0.039385)
 10:     36.59   0.000026    0.13  0.000221  ( 0.003919 -0.013915  0.003445)
 11:     43.05   0.000144    0.73  0.001043  ( 0.014562 -0.008149 -0.027645)
 12:     57.48   0.000028    0.14  0.000154  ( 0.000296 -0.010474  0.006656)
 13:     60.74   0.000043    0.22  0.000220  ( 0.002581 -0.013706 -0.005094)
 14:     68.36   0.000533    2.69  0.002432  ( 0.032403 -0.014240  0.034348)
 15:     75.97   0.000400    2.02  0.001641  ( 0.022730  0.022486 -0.024876)
 16:     86.84   0.000212    1.07  0.000761  (-0.004839  0.016244 -0.021764)
 17:     94.72   0.000426    2.15  0.001403  ( 0.011440 -0.005482  0.035245)
 18:     96.17   0.000036    0.18  0.000117  ( 0.003002 -0.003129  0.009907)
 19:    125.47   0.000280    1.41  0.000696  ( 0.015439 -0.016217 -0.013953)
 20:    165.63   0.000278    1.40  0.000523  ( 0.001366 -0.021526 -0.007628)
 21:    186.95   0.000256    1.29  0.000428  (-0.009847 -0.003869  0.017769)
 22:    211.36   0.000294    1.49  0.000434  ( 0.013588 -0.011198 -0.011147)
 23:    218.30   0.000633    3.20  0.000904  ( 0.009827  0.026072  0.011309)
 24:    254.01   0.000387    1.96  0.000475  ( 0.004385 -0.008166 -0.019736)
 25:    283.46   0.000101    0.51  0.000111  ( 0.004776 -0.009379 -0.000298)
 26:    324.18   0.000449    2.27  0.000433  (-0.019654 -0.004644  0.004982)
 27:    336.07   0.000143    0.72  0.000133  (-0.009100  0.006006  0.003779)
 28:    338.94   0.000029    0.14  0.000026  ( 0.003029 -0.004100 -0.000600)
 29:    344.94   0.000424    2.14  0.000383  ( 0.010282  0.016262 -0.003611)
 30:    372.85   0.000411    2.08  0.000344  (-0.001031  0.017793  0.005100)
 31:    414.78   0.000054    0.27  0.000041  (-0.003304  0.005164  0.001812)
 32:    419.87   0.000553    2.79  0.000411  ( 0.009084  0.018117  0.000350)
 33:    425.59   0.001267    6.40  0.000929  ( 0.015923  0.025728  0.003663)
 34:    469.38   0.001563    7.90  0.001039  (-0.030537  0.002667  0.009993)
 35:    473.20   0.000314    1.59  0.000207  (-0.002884  0.013888  0.002441)
 36:    500.83   0.001595    8.06  0.000994  ( 0.007336 -0.008838 -0.029363)
 37:    502.98   0.001133    5.72  0.000703  (-0.023295 -0.012474 -0.002091)
 38:    525.48   0.001844    9.32  0.001095  ( 0.021391  0.017903  0.017803)
 39:    539.57   0.000587    2.96  0.000339  (-0.011399  0.013924 -0.003934)
 40:    542.77   0.000395    2.00  0.000227  (-0.014663 -0.003211 -0.001284)
 41:    548.39   0.000561    2.83  0.000319  ( 0.013352 -0.007093 -0.009516)
 42:    570.25   0.000620    3.13  0.000339  ( 0.015785 -0.004635  0.008273)
 43:    602.60   0.002521   12.74  0.001306  (-0.005584 -0.022669 -0.027581)
 44:    606.59   0.000786    3.97  0.000404  (-0.013656 -0.014382  0.003312)
 45:    627.16   0.015511   78.38  0.007718  ( 0.064143  0.003086 -0.059950)
 46:    629.11   0.017456   88.21  0.008659  (-0.006111 -0.087609 -0.030758)
 47:    645.21   0.000267    1.35  0.000129  ( 0.006817  0.007872 -0.004533)
 48:    653.62   0.000283    1.43  0.000135  ( 0.001287  0.005586  0.010121)
 49:    704.59   0.000658    3.33  0.000291  ( 0.013440  0.007800 -0.007071)
 50:    729.66   0.000734    3.71  0.000314  (-0.005909 -0.016087  0.004479)
 51:    737.60   0.007852   39.68  0.003322  (-0.049939 -0.008927  0.027362)
 52:    751.33   0.000670    3.38  0.000278  ( 0.010688 -0.003257 -0.012383)
 53:    764.19   0.001184    5.98  0.000483  ( 0.014955 -0.010341 -0.012359)
 54:    767.36   0.002760   13.95  0.001123  (-0.026246 -0.009454  0.018556)
 55:    812.75   0.003210   16.22  0.001232  ( 0.017184  0.029949  0.006340)
 56:    833.20   0.002623   13.25  0.000982  (-0.022809  0.008779  0.019619)
 57:    857.59   0.003916   19.79  0.001425  (-0.008071 -0.014087 -0.034078)
 58:    862.42   0.005632   28.46  0.002038  (-0.002709  0.029017  0.034473)
 59:    866.38   0.005313   26.85  0.001914  ( 0.013008  0.030628  0.028397)
 60:    874.28   0.000843    4.26  0.000301  (-0.015863 -0.005395 -0.004477)
 61:    890.71   0.000054    0.27  0.000019  ( 0.001006 -0.001223  0.004058)
 62:    913.04   0.000881    4.45  0.000301  (-0.006916  0.005818  0.014808)
 63:    932.06   0.000366    1.85  0.000123  ( 0.001899  0.009979 -0.004407)
 64:    947.68   0.000223    1.13  0.000074  ( 0.008004  0.000347 -0.003055)
 65:    961.68   0.000065    0.33  0.000021  (-0.000077  0.002886  0.003568)
 66:    983.54   0.001054    5.32  0.000334  ( 0.011173  0.013701  0.004661)
 67:    985.53   0.010405   52.58  0.003295  ( 0.013910  0.051884  0.020233)
 68:    991.82   0.000343    1.73  0.000108  ( 0.008267  0.006171  0.001237)
 69:    994.25   0.006206   31.36  0.001948  ( 0.036177  0.000785 -0.025267)
 70:    995.21   0.006220   31.43  0.001950  ( 0.026643 -0.014255 -0.032206)
 71:    999.04   0.000282    1.43  0.000088  ( 0.003815 -0.004193 -0.007490)
 72:   1011.25   0.000021    0.10  0.000006  ( 0.001326 -0.000478  0.002104)
 73:   1013.81   0.000179    0.90  0.000055  ( 0.005996 -0.004062 -0.001607)
 74:   1019.80   0.000740    3.74  0.000226  (-0.007008 -0.008074 -0.010583)
 75:   1025.59   0.001097    5.55  0.000334  ( 0.001872  0.017353 -0.005408)
 76:   1036.59   0.003649   18.44  0.001099  ( 0.007910  0.032186 -0.000152)
 77:   1041.41   0.001600    8.09  0.000479  ( 0.011309 -0.015603 -0.010396)
 78:   1052.57   0.000782    3.95  0.000232  (-0.014273  0.000812  0.005236)
 79:   1067.71   0.000455    2.30  0.000133  ( 0.002653  0.009776  0.005500)
 80:   1108.93   0.000227    1.15  0.000064  ( 0.002750  0.003988  0.006365)
 81:   1125.92   0.030243  152.84  0.008382  (-0.069459 -0.018448  0.056724)
 82:   1127.60   0.039474  199.48  0.010924  (-0.004515  0.095071  0.043191)
 83:   1136.12   0.001241    6.27  0.000341  ( 0.003025  0.015977 -0.008741)
 84:   1141.71   0.004695   23.73  0.001283  (-0.020450  0.000497  0.029409)
 85:   1145.18   0.004080   20.62  0.001112  ( 0.022461  0.024367 -0.003683)
 86:   1146.34   0.006065   30.65  0.001651  (-0.009903  0.035155  0.017809)
 87:   1154.60   0.001165    5.89  0.000315  ( 0.003405 -0.010992  0.013510)
 88:   1180.59   0.000096    0.49  0.000025  (-0.001562 -0.004792  0.000146)
 89:   1213.00   0.000208    1.05  0.000054  ( 0.003543 -0.002635 -0.005841)
 90:   1223.18   0.000034    0.17  0.000009  ( 0.001892 -0.000036  0.002262)
 91:   1234.25   0.000589    2.98  0.000149  ( 0.011760  0.001819 -0.002698)
 92:   1262.01   0.000159    0.81  0.000039  ( 0.004415  0.001307  0.004268)
 93:   1271.14   0.000480    2.43  0.000118  ( 0.001735 -0.008118  0.006994)
 94:   1274.90   0.001080    5.46  0.000264  (-0.004248  0.009644  0.012379)
 95:   1279.96   0.000680    3.44  0.000166  (-0.000225 -0.012794  0.001462)
 96:   1294.80   0.000548    2.77  0.000132  (-0.003842 -0.002385 -0.010563)
 97:   1301.67   0.000046    0.23  0.000011  (-0.001012  0.003128 -0.000460)
 98:   1328.64   0.002538   12.83  0.000596  (-0.001256 -0.024274  0.002307)
 99:   1333.60   0.001417    7.16  0.000332  (-0.000704  0.018173  0.000936)
100:   1342.21   0.000195    0.99  0.000045  ( 0.003227  0.005753 -0.001384)
101:   1380.25   0.000531    2.68  0.000120  ( 0.000140 -0.010820  0.001693)
102:   1387.51   0.004110   20.77  0.000924  (-0.024339 -0.008107  0.016316)
103:   1389.76   0.004651   23.50  0.001044  (-0.008931  0.024900  0.018563)
104:   1442.44   0.001476    7.46  0.000319  (-0.016566  0.002160  0.006347)
105:   1444.55   0.001735    8.77  0.000375  (-0.005166  0.013071 -0.013311)
106:   1471.49   0.002061   10.42  0.000437  (-0.013159 -0.004303  0.015666)
107:   1472.87   0.002126   10.74  0.000450  ( 0.011738  0.013759  0.011104)
108:   1478.32   0.002237   11.30  0.000472  (-0.019387  0.007205 -0.006668)
109:   1479.19   0.002568   12.98  0.000542  ( 0.002053 -0.020752  0.010342)
110:   1502.50   0.000740    3.74  0.000154  ( 0.003392  0.000455 -0.011912)
111:   1537.41   0.003103   15.68  0.000630  ( 0.021502  0.001900 -0.012804)
112:   1548.49   0.007616   38.49  0.001535  (-0.001101 -0.039124 -0.001693)
113:   1623.54   0.000041    0.21  0.000008  ( 0.002295 -0.001321 -0.000974)
114:   1625.93   0.000421    2.13  0.000081  ( 0.000580 -0.008080  0.003886)
115:   1659.81   0.001781    9.00  0.000335  ( 0.017917  0.003670 -0.000583)
116:   1666.67   0.001366    6.91  0.000256  (-0.015404 -0.003939 -0.001750)
117:   1669.13   0.003279   16.57  0.000613  ( 0.001945 -0.024583 -0.002214)
118:   1719.07   0.001970    9.96  0.000358  ( 0.017563  0.004775 -0.005141)
119:   1824.31   0.040082  202.56  0.006856  (-0.017298  0.065342  0.047829)
120:   1827.93   0.047019  237.61  0.008027  ( 0.070177  0.055697 -0.000291)
121:   3084.90   0.000063    0.32  0.000006  (-0.001545  0.001969  0.000254)
122:   3085.61   0.000062    0.31  0.000006  ( 0.001569  0.001928 -0.000340)
123:   3099.01   0.006585   33.28  0.000663  (-0.007762 -0.000660  0.024544)
124:   3164.50   0.004440   22.44  0.000438  ( 0.001265 -0.019984 -0.006072)
125:   3166.47   0.005211   26.34  0.000514  (-0.022655 -0.000447 -0.000375)
126:   3169.54   0.000312    1.58  0.000031  ( 0.003624 -0.004184 -0.000309)
127:   3170.41   0.002278   11.51  0.000224  ( 0.001544  0.013636 -0.005991)
128:   3170.77   0.000085    0.43  0.000008  (-0.000113 -0.002643  0.001152)
129:   3190.10   0.000292    1.48  0.000029  (-0.003970 -0.003570 -0.000276)
130:   3190.57   0.000323    1.63  0.000032  ( 0.000736  0.005405  0.001357)
131:   3208.63   0.000863    4.36  0.000084  ( 0.008180  0.003553 -0.002089)
132:   3213.10   0.000997    5.04  0.000097  (-0.006410  0.002003  0.007195)
133:   3219.02   0.000231    1.17  0.000022  (-0.001532  0.004467 -0.000237)
134:   3220.79   0.000383    1.94  0.000037  ( 0.000719  0.005618 -0.002246)
135:   3226.00   0.000699    3.53  0.000068  (-0.006501  0.004980 -0.000737)
136:   3232.92   0.000324    1.64  0.000031  ( 0.001175 -0.003902  0.003827)
137:   3235.60   0.000239    1.21  0.000023  ( 0.000255  0.003274 -0.003506)
138:   3237.61   0.000183    0.93  0.000018  ( 0.002965  0.000056  0.002981)
139:   3241.01   0.000232    1.17  0.000022  ( 0.000690 -0.004573  0.000975)
140:   3266.12   0.000637    3.22  0.000061  (-0.006739 -0.000255 -0.003925)

--------------------------
THERMOCHEMISTRY AT 298.15K
--------------------------

Temperature         ... 298.15 K
Pressure            ... 1.00 atm
Total Mass          ... 392.53 AMU

Throughout the following assumptions are being made:
  (1) The electronic state is orbitally nondegenerate
  (2) There are no thermally accessible electronically excited states
  (3) Hindered rotations indicated by low frequency modes are not
      treated as such but are treated as vibrations and this may
      cause some error
  (4) All equations used are the standard statistical mechanics
      equations for an ideal gas
  (5) All vibrations are strictly harmonic

freq.      20.82  E(vib)   ...       0.56
freq.      23.37  E(vib)   ...       0.56
freq.      36.59  E(vib)   ...       0.54
freq.      43.05  E(vib)   ...       0.53
freq.      57.48  E(vib)   ...       0.51
freq.      60.74  E(vib)   ...       0.51
freq.      68.36  E(vib)   ...       0.50
freq.      75.97  E(vib)   ...       0.49
freq.      86.84  E(vib)   ...       0.48
freq.      94.72  E(vib)   ...       0.47
freq.      96.17  E(vib)   ...       0.47
freq.     125.47  E(vib)   ...       0.43
freq.     165.63  E(vib)   ...       0.39
freq.     186.95  E(vib)   ...       0.36
freq.     211.36  E(vib)   ...       0.34
freq.     218.30  E(vib)   ...       0.33
freq.     254.01  E(vib)   ...       0.30
freq.     283.46  E(vib)   ...       0.28
freq.     324.18  E(vib)   ...       0.25
freq.     336.07  E(vib)   ...       0.24
freq.     338.94  E(vib)   ...       0.23
freq.     344.94  E(vib)   ...       0.23
freq.     372.85  E(vib)   ...       0.21
freq.     414.78  E(vib)   ...       0.19
freq.     419.87  E(vib)   ...       0.18
freq.     425.59  E(vib)   ...       0.18
freq.     469.38  E(vib)   ...       0.16
freq.     473.20  E(vib)   ...       0.15
freq.     500.83  E(vib)   ...       0.14
freq.     502.98  E(vib)   ...       0.14
freq.     525.48  E(vib)   ...       0.13
freq.     539.57  E(vib)   ...       0.12
freq.     542.77  E(vib)   ...       0.12
freq.     548.39  E(vib)   ...       0.12
freq.     570.25  E(vib)   ...       0.11
freq.     602.60  E(vib)   ...       0.10
freq.     606.59  E(vib)   ...       0.10
freq.     627.16  E(vib)   ...       0.09
freq.     629.11  E(vib)   ...       0.09
freq.     645.21  E(vib)   ...       0.09
freq.     653.62  E(vib)   ...       0.08
freq.     704.59  E(vib)   ...       0.07
freq.     729.66  E(vib)   ...       0.06
freq.     737.60  E(vib)   ...       0.06
freq.     751.33  E(vib)   ...       0.06
freq.     764.19  E(vib)   ...       0.06
freq.     767.36  E(vib)   ...       0.06
freq.     812.75  E(vib)   ...       0.05
freq.     833.20  E(vib)   ...       0.04
freq.     857.59  E(vib)   ...       0.04
freq.     862.42  E(vib)   ...       0.04
freq.     866.38  E(vib)   ...       0.04
freq.     874.28  E(vib)   ...       0.04
freq.     890.71  E(vib)   ...       0.04
freq.     913.04  E(vib)   ...       0.03
freq.     932.06  E(vib)   ...       0.03
freq.     947.68  E(vib)   ...       0.03
freq.     961.68  E(vib)   ...       0.03
freq.     983.54  E(vib)   ...       0.02
freq.     985.53  E(vib)   ...       0.02
freq.     991.82  E(vib)   ...       0.02
freq.     994.25  E(vib)   ...       0.02
freq.     995.21  E(vib)   ...       0.02
freq.     999.04  E(vib)   ...       0.02
freq.    1011.25  E(vib)   ...       0.02
freq.    1013.81  E(vib)   ...       0.02
freq.    1019.80  E(vib)   ...       0.02
freq.    1025.59  E(vib)   ...       0.02
freq.    1036.59  E(vib)   ...       0.02
freq.    1041.41  E(vib)   ...       0.02
freq.    1052.57  E(vib)   ...       0.02
freq.    1067.71  E(vib)   ...       0.02
freq.    1108.93  E(vib)   ...       0.02
freq.    1125.92  E(vib)   ...       0.01
freq.    1127.60  E(vib)   ...       0.01
freq.    1136.12  E(vib)   ...       0.01
freq.    1141.71  E(vib)   ...       0.01
freq.    1145.18  E(vib)   ...       0.01
freq.    1146.34  E(vib)   ...       0.01
freq.    1154.60  E(vib)   ...       0.01
freq.    1180.59  E(vib)   ...       0.01
freq.    1213.00  E(vib)   ...       0.01
freq.    1223.18  E(vib)   ...       0.01
freq.    1234.25  E(vib)   ...       0.01
freq.    1262.01  E(vib)   ...       0.01
freq.    1271.14  E(vib)   ...       0.01
freq.    1274.90  E(vib)   ...       0.01
freq.    1279.96  E(vib)   ...       0.01
freq.    1294.80  E(vib)   ...       0.01
freq.    1301.67  E(vib)   ...       0.01
freq.    1328.64  E(vib)   ...       0.01
freq.    1333.60  E(vib)   ...       0.01
freq.    1342.21  E(vib)   ...       0.01
freq.    1380.25  E(vib)   ...       0.01
freq.    1387.51  E(vib)   ...       0.00
freq.    1389.76  E(vib)   ...       0.00
freq.    1442.44  E(vib)   ...       0.00
freq.    1444.55  E(vib)   ...       0.00
freq.    1471.49  E(vib)   ...       0.00
freq.    1472.87  E(vib)   ...       0.00
freq.    1478.32  E(vib)   ...       0.00
freq.    1479.19  E(vib)   ...       0.00
freq.    1502.50  E(vib)   ...       0.00
freq.    1537.41  E(vib)   ...       0.00
freq.    1548.49  E(vib)   ...       0.00
freq.    1623.54  E(vib)   ...       0.00
freq.    1625.93  E(vib)   ...       0.00
freq.    1659.81  E(vib)   ...       0.00
freq.    1666.67  E(vib)   ...       0.00
freq.    1669.13  E(vib)   ...       0.00
freq.    1719.07  E(vib)   ...       0.00
freq.    1824.31  E(vib)   ...       0.00
freq.    1827.93  E(vib)   ...       0.00
freq.    3084.90  E(vib)   ...       0.00
freq.    3085.61  E(vib)   ...       0.00
freq.    3099.01  E(vib)   ...       0.00
freq.    3164.50  E(vib)   ...       0.00
freq.    3166.47  E(vib)   ...       0.00
freq.    3169.54  E(vib)   ...       0.00
freq.    3170.41  E(vib)   ...       0.00
freq.    3170.77  E(vib)   ...       0.00
freq.    3190.10  E(vib)   ...       0.00
freq.    3190.57  E(vib)   ...       0.00
freq.    3208.63  E(vib)   ...       0.00
freq.    3213.10  E(vib)   ...       0.00
freq.    3219.02  E(vib)   ...       0.00
freq.    3220.79  E(vib)   ...       0.00
freq.    3226.00  E(vib)   ...       0.00
freq.    3232.92  E(vib)   ...       0.00
freq.    3235.60  E(vib)   ...       0.00
freq.    3237.61  E(vib)   ...       0.00
freq.    3241.01  E(vib)   ...       0.00
freq.    3266.12  E(vib)   ...       0.00

------------
INNER ENERGY
------------

The inner energy is: U= E(el) + E(ZPE) + E(vib) + E(rot) + E(trans)
    E(el)   - is the total energy from the electronic structure calculation
              = E(kin-el) + E(nuc-el) + E(el-el) + E(nuc-nuc)
    E(ZPE)  - the the zero temperature vibrational energy from the frequency calculation
    E(vib)  - the the finite temperature correction to E(ZPE) due to population
              of excited vibrational states

Rotational constants in cm-1:     0.006247     0.003254     0.002244

                             ****ORCA TERMINATED NORMALLY****
TOTAL RUN TIME: 0 days 19 hours 20 minutes 17 seconds 94 msec
