 Gaussian 16, Revision A.03,
 Gaussian 16:  ES64L-G16RevA.03 25-Dec-2016

 ----------------------------------------------
 # opt freq b3lyp/6-311g(d,p) geom=connectivity
 ----------------------------------------------

 -------------------
 Title Card Required
 -------------------
 Symbolic Z-matrix:
 Charge =  1 Multiplicity = 2

 SCF Done:  E(UB3LYP) =  -56.1851105567     A.U. after   11 cycles
 SCF Done:  E(UB3LYP) =  -56.2021810896     A.U. after   12 cycles
 SCF Done:  E(UB3LYP) =  -56.2074147945     A.U. after   11 cycles
 SCF Done:  E(UB3LYP) =  -56.2077185809     A.U. after    9 cycles
 SCF Done:  E(UB3LYP) =  -56.2077232593     A.U. after    7 cycles
 Optimization completed.
    -- Stationary point found.
 Normal termination of Gaussian 16 at Thu Sep 30 14:21:58 2021.

 ----------------------------------------------------------------------
 #N Geom=AllCheck Guess=TCheck SCRF=Check GenChk UB3LYP/6-311G(d,p) Fre
 q
 ----------------------------------------------------------------------

 Structure from the checkpoint file:  "6-311G_dp.chk"
 -------------------
 Title Card Required
 -------------------
 Charge =  1 Multiplicity = 2

                         Standard orientation:
 ---------------------------------------------------------------------
 Center     Atomic      Atomic             Coordinates (Angstroms)
 Number     Number       Type             X           Y           Z
 ---------------------------------------------------------------------
      1          7           0        0.000000    0.000000   -0.000016
      2          1           0       -0.000000    1.026996    0.000038
      3          1           0       -0.889404   -0.513498    0.000038
      4          1           0        0.889404   -0.513498    0.000038
 ---------------------------------------------------------------------

 SCF Done:  E(UB3LYP) =  -56.2077232593     A.U. after    1 cycles

 Unable to determine electronic state:  an orbital has unidentified symmetry.
 Alpha  occ. eigenvalues --  -14.75660  -1.26615  -0.87664  -0.87664  -0.71447
 Alpha virt. eigenvalues --   -0.24359  -0.15624  -0.15624   0.03596   0.03596
 Alpha virt. eigenvalues --    0.05749   0.21255   0.36695   0.36695   0.52766
 Alpha virt. eigenvalues --    0.81322   0.81322   1.09000   1.22832   1.22832

  Beta  occ. eigenvalues --  -14.73443  -1.20816  -0.86036  -0.86036
  Beta virt. eigenvalues --   -0.49088  -0.23150  -0.15102  -0.15102   0.03717
  Beta virt. eigenvalues --    0.03717   0.07548   0.28726   0.37721   0.37721
  Beta virt. eigenvalues --    0.56072   0.83571   0.83571   1.08530   1.22924

 Mulliken charges and spin densities:
               1          2
     1  N   -0.066974   1.103470
     2  H    0.355658  -0.034490
     3  H    0.355658  -0.034490
     4  H    0.355658  -0.034490
 Sum of Mulliken charges =   1.00000   1.00000

 Dipole moment (field-independent basis, Debye):
    X=              0.0000    Y=             -0.0000    Z=              0.0002  Tot=              0.0002
 Quadrupole moment (field-independent basis, Debye-Ang):
   XX=             -2.9638   YY=             -2.9638   ZZ=             -6.0420
   XY=              0.0000   XZ=              0.0000   YZ=              0.0000

  Exact polarizability:   7.438   0.000   7.438  -0.000  -0.000   4.166
 Approx polarizability:   8.969   0.000   8.969   0.000  -0.000   4.901

                      1                      2                      3
                     A1                     ?A                     ?A
 Frequencies --    869.1431              1530.4076              1530.4076
 Red. masses --      1.2067                 1.0882                 1.0882
 Frc consts  --      0.5371                 1.5016                 1.5016
 IR Inten    --    261.7390                75.9497                75.9492

                      4                      5                      6
                     ?B                     ?A                     ?A
 Frequencies --   3341.9215              3516.1953              3516.1953
 Red. masses --      1.0078                 1.1087                 1.1087
 Frc consts  --      6.6317                 8.0761                 8.0761
 IR Inten    --      0.0000               278.4379               278.4380

 - Thermochemistry -
 -------------------
 Temperature   298.150 Kelvin.  Pressure   1.00000 Atm.
 Atom     1 has atomic number  7 and mass  14.00307

 Molecular mass:    17.02655 amu.
 Principal axes and moments of inertia in atomic units:
                           1         2         3
     Eigenvalues --     5.69392   5.69392  11.38784
           X            0.41790   0.90849   0.00000
           Y            0.90849  -0.41790   0.00000
           Z            0.00000   0.00000   1.00000
 This molecule is an oblate symmetric top.
 Rotational symmetry number  3.
 Rotational temperatures (Kelvin)     15.21165    15.21165     7.60583
 Rotational constants (GHZ):         316.95940   316.95940   158.47970
 Zero-point vibrational energy      85558.5 (Joules/Mol)
                                   20.44898 (Kcal/Mol)
 Vibrational temperatures:   1250.50  2201.92  2201.92  4808.28  5059.02
          (Kelvin)           5059.02

 Zero-point correction=                           0.032588 (Hartree/Particle)
 Thermal correction to Energy=                    0.035489
 Thermal correction to Enthalpy=                  0.036434
 Thermal correction to Gibbs Free Energy=         0.013870
 Sum of electronic and zero-point Energies=            -56.175136
 Sum of electronic and thermal Energies=               -56.172234
 Sum of electronic and thermal Enthalpies=             -56.171290
 Sum of electronic and thermal Free Energies=          -56.193854

                     E (Thermal)             CV                S
                      KCal/Mol        Cal/Mol-Kelvin    Cal/Mol-Kelvin
 Total                   22.270              6.640             47.490
 Electronic               0.000              0.000              1.377
 Translational            0.889              2.981             34.441
 Rotational               0.889              2.981             11.493
 Vibrational             20.492              0.678              0.179

 Optimization completed.
    -- Stationary point found.
 Normal termination of Gaussian 16 at Thu Sep 30 14:22:13 2021.
