                         Program Version 5.0.1 -  RELEASE  -
|  1> ! PAL4
|  2> ! RHF cc-pVTZ MP2 VeryTightSCF NormalOPT NoFrozenCore
|  3> ! Opt Freq
|  4> %pal nprocs 4
|  5> end
|  6> %elprop
|  7> Polar 1
|  8> end
|  9> %maxcore 38000
| 10> * xyz 0 1
| 11>   C   0.27002872850609     -0.57181798488413      0.93978216879225
| 12>   C   0.08980832879775      0.94283113327733      1.04330299832404
| 13>   C   -0.35749147853155      1.36642058508809     -0.33312267367017
| 14>   C   -1.36194578931477      0.80847132080833      0.64376631566550
| 15>   C   -1.17909779138796     -0.72795168218850      0.53882884886457
| 16>   C   -0.08789368810933     -0.89949038580966     -0.48802245175156
| 17>   S   -2.27811357529293     -1.97479104463256      1.08695382697513
| 18>   C   0.01698186442808      0.32618110169902     -1.34982446893243
| 19>   H   -0.40898818451977      2.41603274200839     -0.56304075012372
| 20>   H   0.10349464489447     -1.89153502572792     -0.85737038720410
| 21>   H   1.02473927171560      0.47208470781914     -1.72987712193624
| 22>   H   -0.68118477354609      0.30006905552190     -2.18287150234765
| 23>   H   0.51938853912220      1.60250869109882      1.77394646818044
| 24>   H   0.85393083805952     -1.20451457724329      1.58189410744343
| 25>   S   -2.71280077453460      1.67902967072405      1.33667188419044
| 26>   H   -3.45815027123602      1.74925658138950      0.22851876930029
| 27>   H   -3.00464688905069     -2.06693488894853     -0.03203403177025
| 28> *
| 29>
| 30>
| 31>                          ****END OF INPUT****
 Total Charge           Charge          ....    0
 Multiplicity           Mult            ....    1
 Number of Electrons    NEL             ....   82
MP2 TOTAL ENERGY:    -1066.479501759 Eh
FINAL SINGLE POINT ENERGY     -1066.479501759086
                    ***********************HURRAY********************

CARTESIAN COORDINATES (ANGSTROEM)
---------------------------------
  C      0.270001   -0.571727    0.939815
  C      0.089876    0.942784    1.043290
  C     -0.357216    1.366362   -0.333260
  C     -1.361847    0.808596    0.643582
  C     -1.179065   -0.727877    0.538605
  C     -0.087697   -0.899332   -0.488113
  S     -2.278272   -1.974675    1.087036
  C      0.017199    0.326212   -1.350002
  H     -0.408557    2.415947   -0.562874
  H      0.103798   -1.891368   -0.857148
  H      1.024839    0.472065   -1.730077
  H     -0.680943    0.300097   -2.182912
  H      0.519234    1.602646    1.773757
  H      0.853549   -1.204727    1.581792
  S     -2.712807    1.679137    1.336802
  H     -3.458906    1.748746    0.229024
  H     -3.005127   -2.067034   -0.031816

 Multiplicity           Mult            ....    1
 Number of Electrons    NEL             ....   82
 Basis Dimension        Dim             ....  390

ORBITAL ENERGIES
----------------

  NO   OCC          E(Eh)            E(eV)
   0   2.0000     -91.953895     -2502.1927
   1   2.0000     -91.953893     -2502.1926
   2   2.0000     -11.267977      -306.6172
   3   2.0000     -11.267453      -306.6030
   4   2.0000     -11.245203      -305.9975
   5   2.0000     -11.244704      -305.9840
   6   2.0000     -11.243965      -305.9638
   7   2.0000     -11.243878      -305.9615
   8   2.0000     -11.231325      -305.6199
   9   2.0000      -8.956073      -243.7071
  10   2.0000      -8.956069      -243.7070
  11   2.0000      -6.637463      -180.6146
  12   2.0000      -6.637460      -180.6145
  13   2.0000      -6.636409      -180.5859
  14   2.0000      -6.636406      -180.5858
  15   2.0000      -6.635409      -180.5587
  16   2.0000      -6.635406      -180.5586
  17   2.0000      -1.275497       -34.7080
  18   2.0000      -1.089715       -29.6527
  19   2.0000      -1.033653       -28.1271
  20   2.0000      -0.987188       -26.8628
  21   2.0000      -0.966105       -26.2891
  22   2.0000      -0.847682       -23.0666
  23   2.0000      -0.795155       -21.6373
  24   2.0000      -0.772377       -21.0174
  25   2.0000      -0.705400       -19.1949
  26   2.0000      -0.690805       -18.7978
  27   2.0000      -0.617745       -16.8097
  28   2.0000      -0.598349       -16.2819
  29   2.0000      -0.596834       -16.2407
  30   2.0000      -0.568423       -15.4676
  31   2.0000      -0.543953       -14.8017
  32   2.0000      -0.520981       -14.1766
  33   2.0000      -0.503659       -13.7052
  34   2.0000      -0.481387       -13.0992
  35   2.0000      -0.455794       -12.4028
  36   2.0000      -0.426862       -11.6155
  37   2.0000      -0.408357       -11.1120
  38   2.0000      -0.355663        -9.6781
  39   2.0000      -0.348054        -9.4710
  40   2.0000      -0.346586        -9.4311
  41   0.0000       0.122641         3.3372
  42   0.0000       0.150740         4.1018
  43   0.0000       0.157630         4.2893
  44   0.0000       0.170212         4.6317
  45   0.0000       0.180339         4.9073

MULLIKEN ATOMIC CHARGES
-----------------------
   0 C :   -0.201583
   1 C :   -0.201570
   2 C :   -0.135222
   3 C :    0.017622
   4 C :    0.017638
   5 C :   -0.135211
   6 S :   -0.130694
   7 C :   -0.263817
   8 H :    0.163754
   9 H :    0.163744
  10 H :    0.134233
  11 H :    0.131736
  12 H :    0.177792
  13 H :    0.177792
  14 S :   -0.130701
  15 H :    0.107243
  16 H :    0.107244
Sum of atomic charges:   -0.0000000

LOEWDIN ATOMIC CHARGES
----------------------
   0 C :    0.054610
   1 C :    0.054623
   2 C :    0.021983
   3 C :   -0.294862
   4 C :   -0.294863
   5 C :    0.021992
   6 S :    0.421173
   7 C :    0.065171
   8 H :   -0.027822
   9 H :   -0.027823
  10 H :   -0.018151
  11 H :   -0.019114
  12 H :   -0.040917
  13 H :   -0.040914
  14 S :    0.421175
  15 H :   -0.148132
  16 H :   -0.148129

  Mayer bond orders larger than 0.100000
B(  0-C ,  1-C ) :   0.8997 B(  0-C ,  4-C ) :   0.8239 B(  0-C ,  5-C ) :   0.8631
B(  0-C , 13-H ) :   0.9063 B(  1-C ,  2-C ) :   0.8631 B(  1-C ,  3-C ) :   0.8239
B(  1-C , 12-H ) :   0.9063 B(  2-C ,  3-C ) :   0.7963 B(  2-C ,  7-C ) :   0.9243
B(  2-C ,  8-H ) :   0.9120 B(  3-C ,  4-C ) :   0.8500 B(  3-C , 14-S ) :   1.0069
B(  4-C ,  5-C ) :   0.7963 B(  4-C ,  6-S ) :   1.0069 B(  5-C ,  7-C ) :   0.9243
B(  5-C ,  9-H ) :   0.9120 B(  6-S , 16-H ) :   0.9485 B(  7-C , 10-H ) :   0.9225
B(  7-C , 11-H ) :   0.9245 B( 14-S , 15-H ) :   0.9485

MP2 TOTAL ENERGY:    -1066.479502441 Eh
FINAL SINGLE POINT ENERGY     -1066.479502441410

DIPOLE MOMENT
-------------
                                X             Y             Z
Electronic contribution:     -4.32434      -0.86412       5.11205
Nuclear contribution   :      4.76720       0.97258      -5.92743
                        -----------------------------------------
Total Dipole Moment    :      0.44286       0.10845      -0.81538
                        -----------------------------------------
Magnitude (a.u.)       :      0.93420
Magnitude (Debye)      :      2.37455

VIBRATIONAL FREQUENCIES
-----------------------

Scaling factor for frequencies =  1.000000000  (already applied!)

   0:         0.00 cm**-1
   1:         0.00 cm**-1
   2:         0.00 cm**-1
   3:         0.00 cm**-1
   4:         0.00 cm**-1
   5:         0.00 cm**-1
   6:       115.84 cm**-1
   7:       143.12 cm**-1
   8:       199.23 cm**-1
   9:       247.33 cm**-1
  10:       274.35 cm**-1
  11:       322.45 cm**-1
  12:       391.29 cm**-1
  13:       410.67 cm**-1
  14:       480.21 cm**-1
  15:       567.46 cm**-1
  16:       683.04 cm**-1
  17:       741.96 cm**-1
  18:       777.89 cm**-1
  19:       827.63 cm**-1
  20:       843.15 cm**-1
  21:       853.02 cm**-1
  22:       883.49 cm**-1
  23:       894.77 cm**-1
  24:       940.77 cm**-1
  25:       965.40 cm**-1
  26:       985.60 cm**-1
  27:      1001.16 cm**-1
  28:      1011.06 cm**-1
  29:      1018.27 cm**-1
  30:      1039.91 cm**-1
  31:      1074.60 cm**-1
  32:      1099.06 cm**-1
  33:      1131.42 cm**-1
  34:      1184.92 cm**-1
  35:      1198.81 cm**-1
  36:      1206.35 cm**-1
  37:      1238.87 cm**-1
  38:      1285.69 cm**-1
  39:      1301.59 cm**-1
  40:      1399.66 cm**-1
  41:      1399.73 cm**-1
  42:      1510.18 cm**-1
  43:      2727.80 cm**-1
  44:      2728.81 cm**-1
  45:      3100.16 cm**-1
  46:      3143.97 cm**-1
  47:      3241.70 cm**-1
  48:      3242.96 cm**-1
  49:      3255.01 cm**-1
  50:      3268.12 cm**-1

IR SPECTRUM
-----------

 Mode   freq       eps      Int      T**2         TX        TY        TZ
       cm**-1   L/(mol*cm) km/mol    a.u.
----------------------------------------------------------------------------
  6:    115.84   0.000415    2.10  0.001119  (-0.003938  0.033141  0.002275)
  7:    143.12   0.000009    0.05  0.000020  (-0.001961 -0.000502  0.003995)
  8:    199.23   0.000625    3.16  0.000979  ( 0.025812  0.004236 -0.017174)
  9:    247.33   0.003579   18.09  0.004516  ( 0.007950 -0.066568 -0.004582)
 10:    274.35   0.001544    7.80  0.001756  (-0.032779 -0.005708  0.025472)
 11:    322.45   0.000089    0.45  0.000086  ( 0.001093 -0.009173 -0.000617)
 12:    391.29   0.000275    1.39  0.000220  (-0.013642 -0.001996  0.005424)
 13:    410.67   0.000000    0.00  0.000000  ( 0.000058 -0.000475 -0.000025)
 14:    480.21   0.000027    0.14  0.000018  (-0.003604 -0.000284 -0.002156)
 15:    567.46   0.000002    0.01  0.000001  (-0.000106  0.000949  0.000055)
 16:    683.04   0.000024    0.12  0.000011  ( 0.000392 -0.003272 -0.000229)
 17:    741.96   0.000100    0.50  0.000042  (-0.004414 -0.000843  0.004671)
 18:    777.89   0.000090    0.45  0.000036  ( 0.000707 -0.005937 -0.000411)
 19:    827.63   0.000637    3.22  0.000240  ( 0.001822 -0.015348 -0.001071)
 20:    843.15   0.004339   21.93  0.001606  ( 0.037160  0.005396 -0.013998)
 21:    853.02   0.000525    2.65  0.000192  ( 0.013597  0.001744 -0.001989)
 22:    883.49   0.003329   16.82  0.001176  ( 0.021690  0.000764  0.026548)
 23:    894.77   0.000092    0.46  0.000032  (-0.000682  0.005600  0.000342)
 24:    940.77   0.000686    3.47  0.000227  (-0.010094 -0.001934  0.011039)
 25:    965.40   0.001851    9.36  0.000598  ( 0.002883 -0.024235 -0.001682)
 26:    985.60   0.000617    3.12  0.000195  (-0.000347  0.000959 -0.013944)
 27:   1001.16   0.001412    7.14  0.000440  (-0.016698 -0.002839  0.012382)
 28:   1011.06   0.000151    0.76  0.000047  (-0.000816  0.006765  0.000478)
 29:   1018.27   0.000423    2.14  0.000129  ( 0.007682  0.000350  0.008387)
 30:   1039.91   0.000003    0.02  0.000001  ( 0.000120 -0.001003 -0.000057)
 31:   1074.60   0.000021    0.11  0.000006  ( 0.001131  0.000284 -0.002170)
 32:   1099.06   0.000322    1.62  0.000091  (-0.001110  0.009467  0.000650)
 33:   1131.42   0.000991    5.01  0.000273  ( 0.001932 -0.016382 -0.001116)
 34:   1184.92   0.000193    0.97  0.000051  ( 0.005593  0.000361  0.004394)
 35:   1198.81   0.004071   20.57  0.001060  (-0.032207 -0.004001  0.002520)
 36:   1206.35   0.000001    0.01  0.000000  ( 0.000050 -0.000529 -0.000021)
 37:   1238.87   0.000030    0.15  0.000008  ( 0.000320 -0.002714 -0.000189)
 38:   1285.69   0.001298    6.56  0.000315  (-0.015127 -0.001179 -0.009204)
 39:   1301.59   0.000002    0.01  0.000001  ( 0.000084 -0.000748 -0.000044)
 40:   1399.66   0.000764    3.86  0.000170  (-0.002633  0.012582  0.002272)
 41:   1399.73   0.000659    3.33  0.000147  ( 0.007168  0.003436 -0.009147)
 42:   1510.18   0.000284    1.43  0.000059  ( 0.001014 -0.000396  0.007577)
 43:   2727.80   0.000390    1.97  0.000045  ( 0.000868 -0.006611 -0.000418)
 44:   2728.81   0.001506    7.61  0.000172  (-0.012091 -0.001142 -0.004968)
 45:   3100.16   0.006905   34.89  0.000695  (-0.007883 -0.002648  0.025018)
 46:   3143.97   0.002388   12.07  0.000237  (-0.015021 -0.001582 -0.002990)
 47:   3241.70   0.000396    2.00  0.000038  (-0.000732  0.006117  0.000441)
 48:   3242.96   0.000149    0.75  0.000014  ( 0.000536  0.000359 -0.003732)
 49:   3255.01   0.000451    2.28  0.000043  (-0.000777  0.006516  0.000443)
 50:   3268.12   0.000452    2.29  0.000043  ( 0.005969  0.000524  0.002701)

--------------------------
THERMOCHEMISTRY AT 298.15K
--------------------------

Temperature         ... 298.15 K
Pressure            ... 1.00 atm
Total Mass          ... 156.26 AMU

Throughout the following assumptions are being made:
  (1) The electronic state is orbitally nondegenerate
  (2) There are no thermally accessible electronically excited states
  (3) Hindered rotations indicated by low frequency modes are not
      treated as such but are treated as vibrations and this may
      cause some error
  (4) All equations used are the standard statistical mechanics
      equations for an ideal gas
  (5) All vibrations are strictly harmonic

freq.     115.84  E(vib)   ...       0.44
freq.     143.12  E(vib)   ...       0.41
freq.     199.23  E(vib)   ...       0.35
freq.     247.33  E(vib)   ...       0.31
freq.     274.35  E(vib)   ...       0.28
freq.     322.45  E(vib)   ...       0.25
freq.     391.29  E(vib)   ...       0.20
freq.     410.67  E(vib)   ...       0.19
freq.     480.21  E(vib)   ...       0.15
freq.     567.46  E(vib)   ...       0.11
freq.     683.04  E(vib)   ...       0.08
freq.     741.96  E(vib)   ...       0.06
freq.     777.89  E(vib)   ...       0.05
freq.     827.63  E(vib)   ...       0.04
freq.     843.15  E(vib)   ...       0.04
freq.     853.02  E(vib)   ...       0.04
freq.     883.49  E(vib)   ...       0.04
freq.     894.77  E(vib)   ...       0.03
freq.     940.77  E(vib)   ...       0.03
freq.     965.40  E(vib)   ...       0.03
freq.     985.60  E(vib)   ...       0.02
freq.    1001.16  E(vib)   ...       0.02
freq.    1011.06  E(vib)   ...       0.02
freq.    1018.27  E(vib)   ...       0.02
freq.    1039.91  E(vib)   ...       0.02
freq.    1074.60  E(vib)   ...       0.02
freq.    1099.06  E(vib)   ...       0.02
freq.    1131.42  E(vib)   ...       0.01
freq.    1184.92  E(vib)   ...       0.01
freq.    1198.81  E(vib)   ...       0.01
freq.    1206.35  E(vib)   ...       0.01
freq.    1238.87  E(vib)   ...       0.01
freq.    1285.69  E(vib)   ...       0.01
freq.    1301.59  E(vib)   ...       0.01
freq.    1399.66  E(vib)   ...       0.00
freq.    1399.73  E(vib)   ...       0.00
freq.    1510.18  E(vib)   ...       0.00
freq.    2727.80  E(vib)   ...       0.00
freq.    2728.81  E(vib)   ...       0.00
freq.    3100.16  E(vib)   ...       0.00
freq.    3143.97  E(vib)   ...       0.00
freq.    3241.70  E(vib)   ...       0.00
freq.    3242.96  E(vib)   ...       0.00
freq.    3255.01  E(vib)   ...       0.00
freq.    3268.12  E(vib)   ...       0.00

------------
INNER ENERGY
------------

The inner energy is: U= E(el) + E(ZPE) + E(vib) + E(rot) + E(trans)
    E(el)   - is the total energy from the electronic structure calculation
              = E(kin-el) + E(nuc-el) + E(el-el) + E(nuc-nuc)
    E(ZPE)  - the the zero temperature vibrational energy from the frequency calculation
    E(vib)  - the the finite temperature correction to E(ZPE) due to population
              of excited vibrational states
    E(rot)  - is the rotational thermal energy
    E(trans)- is the translational thermal energy

Summary of contributions to the inner energy U:
Electronic energy                ...  -1066.47950244 Eh
Zero point energy                ...      0.12839394 Eh      80.57 kcal/mol
Thermal vibrational correction   ...      0.00535752 Eh       3.36 kcal/mol
Thermal rotational correction    ...      0.00141627 Eh       0.89 kcal/mol
Thermal translational correction ...      0.00141627 Eh       0.89 kcal/mol
-----------------------------------------------------------------------
Total thermal energy                  -1066.34291843 Eh

Summary of corrections to the electronic energy:
(perhaps to be used in another calculation)
Total thermal correction                  0.00819007 Eh       5.14 kcal/mol
Non-thermal (ZPE) correction              0.12839394 Eh      80.57 kcal/mol
-----------------------------------------------------------------------
Total correction                          0.13658401 Eh      85.71 kcal/mol

--------
ENTHALPY
--------

The enthalpy is H = U + kB*T
                kB is Boltzmann's constant
Total free energy                 ...  -1066.34291843 Eh
Thermal Enthalpy correction       ...      0.00094421 Eh       0.59 kcal/mol
-----------------------------------------------------------------------
Total Enthalpy                    ...  -1066.34197422 Eh

Note: Only C1 symmetry has been detected, increase convergence thresholds
      if your molecule has a higher symmetry. Symmetry factor of 1.0 is
      used for the rotational entropy correction.

Note: Rotational entropy computed according to Herzberg
Infrared and Raman Spectra, Chapter V,1, Van Nostrand Reinhold, 1945
Point Group:  C1, Symmetry Number:   1
Rotational constants in cm-1:     0.049713     0.046844     0.029207

Vibrational entropy computed according to the QRRHO of S. Grimme
Chem.Eur.J. 2012 18 9955

-------
ENTROPY
-------

The entropy contributions are T*S = T*(S(el)+S(vib)+S(rot)+S(trans))
     S(el)   - electronic entropy
     S(vib)  - vibrational entropy
     S(rot)  - rotational entropy
     S(trans)- translational entropy
The entropies will be listed as multiplied by the temperature to get
units of energy

Electronic entropy                ...      0.00000000 Eh      0.00 kcal/mol
Vibrational entropy               ...      0.00873904 Eh      5.48 kcal/mol
Rotational entropy                ...      0.01404088 Eh      8.81 kcal/mol
Translational entropy             ...      0.01950341 Eh     12.24 kcal/mol
-----------------------------------------------------------------------
Final entropy term                ...      0.04228333 Eh     26.53 kcal/mol

In case the symmetry of your molecule has not been determined correctly
or in case you have a reason to use a different symmetry number we print
out the resulting rotational entropy values for sn=1,12 :
 --------------------------------------------------------
|  sn= 1 | S(rot)=       0.01404088 Eh      8.81 kcal/mol|
|  sn= 2 | S(rot)=       0.01338643 Eh      8.40 kcal/mol|
|  sn= 3 | S(rot)=       0.01300359 Eh      8.16 kcal/mol|
|  sn= 4 | S(rot)=       0.01273197 Eh      7.99 kcal/mol|
|  sn= 5 | S(rot)=       0.01252128 Eh      7.86 kcal/mol|
|  sn= 6 | S(rot)=       0.01234914 Eh      7.75 kcal/mol|
|  sn= 7 | S(rot)=       0.01220359 Eh      7.66 kcal/mol|
|  sn= 8 | S(rot)=       0.01207751 Eh      7.58 kcal/mol|
|  sn= 9 | S(rot)=       0.01196630 Eh      7.51 kcal/mol|
|  sn=10 | S(rot)=       0.01186682 Eh      7.45 kcal/mol|
|  sn=11 | S(rot)=       0.01177683 Eh      7.39 kcal/mol|
|  sn=12 | S(rot)=       0.01169468 Eh      7.34 kcal/mol|
 --------------------------------------------------------

-------------------
GIBBS FREE ENERGY
-------------------

                             ****ORCA TERMINATED NORMALLY****
TOTAL RUN TIME: 1 days 2 hours 4 minutes 5 seconds 621 msec
