                         Program Version 5.0.1 -  RELEASE  -
|  1> ! PAL4
|  2> ! RKS 6-311+G* M062X TightSCF
|  3> %scf
|  4> GuessMode=CMatrix
|  5> end
|  6> %moinp "./TAK3_r-22_opt.gbw"
|  7> %TDDFT NROOTS 10
|  8> END
|  9> %maxcore 6000
| 10> * xyz 0 1
| 11> C  3.109312  1.539691  2.498033
| 12> C  3.236257  1.744398  1.000298
| 13> O  2.164556  1.078517  0.314223
| 14> C  0.967799  1.689308  0.341734
| 15> O  0.800774  2.816930  0.732906
| 16> C  -0.121160  0.813479  -0.140030
| 17> C  -0.054611  -0.515837  -0.257268
| 18> C  1.122145  -1.374729  0.069365
| 19> O  1.374598  -1.779732  1.173280
| 20> O  1.808363  -1.698329  -1.030030
| 21> C  2.994288  -2.486242  -0.827388
| 22> C  4.128235  -1.624503  -0.307836
| 23> C  -1.375507  -1.146807  -0.636554
| 24> C  -1.923215  -0.459631  -1.880555
| 25> C  -2.340719  -1.316677  -3.033571
| 26> C  -1.985987  0.867125  -1.753405
| 27> C  -2.552829  1.865255  -2.716857
| 28> C  -1.498532  1.368162  -0.403765
| 29> C  -2.447553  0.737510  0.677552
| 30> C  -2.117906  1.291476  2.063117
| 31> C  -2.369031  -0.816013  0.538137
| 32> C  -1.974903  -1.569883  1.807407
| 33> H  3.979696  1.955881  3.009902
| 34> H  2.217860  2.039400  2.879407
| 35> H  3.042365  0.474922  2.730849
| 36> H  4.140701  1.283500  0.605009
| 37> H  3.226817  2.801597  0.733455
| 38> H  2.764894  -3.302039  -0.140466
| 39> H  3.217547  -2.896193  -1.811264
| 40> H  5.044420  -2.215116  -0.239337
| 41> H  3.890440  -1.237611  0.683853
| 42> H  4.304926  -0.785296  -0.983161
| 43> H  -1.290342  -2.228075  -0.767661
| 44> H  -3.096506  -2.045511  -2.721210
| 45> H  -1.488161  -1.887954  -3.414516
| 46> H  -2.754399  -0.737803  -3.859047
| 47> H  -1.796731  2.604891  -2.997950
| 48> H  -2.931296  1.403885  -3.628811
| 49> H  -3.375881  2.417830  -2.251153
| 50> H  -1.506993  2.456502  -0.332736
| 51> H  -3.461927  1.055285  0.418625
| 52> H  -1.108413  1.019941  2.380687
| 53> H  -2.174370  2.382384  2.052606
| 54> H  -2.815423  0.927827  2.820392
| 55> H  -3.346467  -1.184094  0.212305
| 56> H  -2.689770  -1.395027  2.614109
| 57> H  -0.982727  -1.286700  2.163646
| 58> H  -1.954633  -2.645832  1.613662
| 59> *
| 60>
| 61>
| 62>                          ****END OF INPUT****

CARTESIAN COORDINATES (ANGSTROEM)
---------------------------------
  C      3.109312    1.539691    2.498033
  C      3.236257    1.744398    1.000298
  O      2.164556    1.078517    0.314223
  C      0.967799    1.689308    0.341734
  O      0.800774    2.816930    0.732906
  C     -0.121160    0.813479   -0.140030
  C     -0.054611   -0.515837   -0.257268
  C      1.122145   -1.374729    0.069365
  O      1.374598   -1.779732    1.173280
  O      1.808363   -1.698329   -1.030030
  C      2.994288   -2.486242   -0.827388
  C      4.128235   -1.624503   -0.307836
  C     -1.375507   -1.146807   -0.636554
  C     -1.923215   -0.459631   -1.880555
  C     -2.340719   -1.316677   -3.033571
  C     -1.985987    0.867125   -1.753405
  C     -2.552829    1.865255   -2.716857
  C     -1.498532    1.368162   -0.403765
  C     -2.447553    0.737510    0.677552
  C     -2.117906    1.291476    2.063117
  C     -2.369031   -0.816013    0.538137
  C     -1.974903   -1.569883    1.807407
  H      3.979696    1.955881    3.009902
  H      2.217860    2.039400    2.879407
  H      3.042365    0.474922    2.730849
  H      4.140701    1.283500    0.605009
  H      3.226817    2.801597    0.733455
  H      2.764894   -3.302039   -0.140466
  H      3.217547   -2.896193   -1.811264
  H      5.044420   -2.215116   -0.239337
  H      3.890440   -1.237611    0.683853
  H      4.304926   -0.785296   -0.983161
  H     -1.290342   -2.228075   -0.767661
  H     -3.096506   -2.045511   -2.721210
  H     -1.488161   -1.887954   -3.414516
  H     -2.754399   -0.737803   -3.859047
  H     -1.796731    2.604891   -2.997950
  H     -2.931296    1.403885   -3.628811
  H     -3.375881    2.417830   -2.251153
  H     -1.506993    2.456502   -0.332736
  H     -3.461927    1.055285    0.418625
  H     -1.108413    1.019941    2.380687
  H     -2.174370    2.382384    2.052606
  H     -2.815423    0.927827    2.820392
  H     -3.346467   -1.184094    0.212305
  H     -2.689770   -1.395027    2.614109
  H     -0.982727   -1.286700    2.163646
  H     -1.954633   -2.645832    1.613662

 Total Charge           Charge          ....    0
 Multiplicity           Mult            ....    1
 Number of Electrons    NEL             ....  166
 Basis Dimension        Dim             ....  562

ORBITAL ENERGIES
----------------

  NO   OCC          E(Eh)            E(eV)
   0   2.0000     -19.671221      -535.2811
   1   2.0000     -19.666389      -535.1497
   2   2.0000     -19.617547      -533.8206
   3   2.0000     -19.613460      -533.7094
   4   2.0000     -10.682086      -290.6743
   5   2.0000     -10.675921      -290.5066
   6   2.0000     -10.598571      -288.4018
   7   2.0000     -10.594846      -288.3004
   8   2.0000     -10.568588      -287.5859
   9   2.0000     -10.557574      -287.2862
  10   2.0000     -10.556853      -287.2666
  11   2.0000     -10.548080      -287.0279
  12   2.0000     -10.547578      -287.0142
  13   2.0000     -10.545607      -286.9606
  14   2.0000     -10.539048      -286.7821
  15   2.0000     -10.537518      -286.7405
  16   2.0000     -10.534357      -286.6544
  17   2.0000     -10.533320      -286.6262
  18   2.0000     -10.532400      -286.6012
  19   2.0000     -10.528142      -286.4853
  20   2.0000     -10.517724      -286.2018
  21   2.0000     -10.517248      -286.1889
  22   2.0000      -1.243665       -33.8418
  23   2.0000      -1.236576       -33.6489
  24   2.0000      -1.148824       -31.2611
  25   2.0000      -1.144272       -31.1372
  26   2.0000      -0.999867       -27.2078
  27   2.0000      -0.906232       -24.6598
  28   2.0000      -0.890812       -24.2402
  29   2.0000      -0.884190       -24.0600
  30   2.0000      -0.869495       -23.6602
  31   2.0000      -0.862007       -23.4564
  32   2.0000      -0.819252       -22.2930
  33   2.0000      -0.794255       -21.6128
  34   2.0000      -0.790138       -21.5007
  35   2.0000      -0.757569       -20.6145
  36   2.0000      -0.746970       -20.3261
  37   2.0000      -0.728101       -19.8126
  38   2.0000      -0.696216       -18.9450
  39   2.0000      -0.689563       -18.7640
  40   2.0000      -0.656882       -17.8747
  41   2.0000      -0.634885       -17.2761
  42   2.0000      -0.626302       -17.0425
  43   2.0000      -0.614505       -16.7215
  44   2.0000      -0.580730       -15.8025
  45   2.0000      -0.573464       -15.6048
  46   2.0000      -0.568121       -15.4593
  47   2.0000      -0.560227       -15.2446
  48   2.0000      -0.551571       -15.0090
  49   2.0000      -0.545484       -14.8434
  50   2.0000      -0.538661       -14.6577
  51   2.0000      -0.523923       -14.2567
  52   2.0000      -0.522830       -14.2269
  53   2.0000      -0.514370       -13.9967
  54   2.0000      -0.504206       -13.7202
  55   2.0000      -0.487970       -13.2783
  56   2.0000      -0.484437       -13.1822
  57   2.0000      -0.479281       -13.0419
  58   2.0000      -0.477921       -13.0049
  59   2.0000      -0.472892       -12.8681
  60   2.0000      -0.463560       -12.6141
  61   2.0000      -0.462474       -12.5846
  62   2.0000      -0.458639       -12.4802
  63   2.0000      -0.452908       -12.3243
  64   2.0000      -0.450686       -12.2638
  65   2.0000      -0.447099       -12.1662
  66   2.0000      -0.441628       -12.0173
  67   2.0000      -0.435736       -11.8570
  68   2.0000      -0.430717       -11.7204
  69   2.0000      -0.427316       -11.6278
  70   2.0000      -0.422762       -11.5039
  71   2.0000      -0.412331       -11.2201
  72   2.0000      -0.408392       -11.1129
  73   2.0000      -0.406988       -11.0747
  74   2.0000      -0.379819       -10.3354
  75   2.0000      -0.376622       -10.2484
  76   2.0000      -0.370082       -10.0704
  77   2.0000      -0.368159       -10.0181
  78   2.0000      -0.360762        -9.8168
  79   2.0000      -0.360275        -9.8036
  80   2.0000      -0.343810        -9.3555
  81   2.0000      -0.315828        -8.5941
  82   2.0000      -0.282181        -7.6785
  83   0.0000      -0.012762        -0.3473
  84   0.0000       0.007755         0.2110
  85   0.0000       0.012612         0.3432
  86   0.0000       0.016987         0.4622
  87   0.0000       0.021297         0.5795

MULLIKEN ATOMIC CHARGES
-----------------------
   0 C :   -0.729588
   1 C :   -0.527077
   2 O :    0.119549
   3 C :    0.312272
   4 O :   -0.228686
   5 C :   -0.094174
   6 C :    0.262084
   7 C :   -0.945774
   8 O :   -0.082865
   9 O :    0.321194
  10 C :   -0.371902
  11 C :   -0.756296
  12 C :   -0.346152
  13 C :    0.391648
  14 C :   -1.116908
  15 C :    0.063896
  16 C :   -1.286376
  17 C :    0.108169
  18 C :    0.010622
  19 C :   -0.952005
  20 C :   -0.288976
  21 C :   -0.910279
  22 H :    0.260452
  23 H :    0.290668
  24 H :    0.287789
  25 H :    0.254939
  26 H :    0.277961
  27 H :    0.271958
  28 H :    0.255271
  29 H :    0.266850
  30 H :    0.296187
  31 H :    0.268550
  32 H :    0.269732
  33 H :    0.264259
  34 H :    0.274686
  35 H :    0.256759
  36 H :    0.280193
  37 H :    0.254615
  38 H :    0.263125
  39 H :    0.288344
  40 H :    0.242740
  41 H :    0.300238
  42 H :    0.266614
  43 H :    0.260466
  44 H :    0.246871
  45 H :    0.256106
  46 H :    0.334480
  47 H :    0.257770
Sum of atomic charges:   -0.0000000

LOEWDIN ATOMIC CHARGES
----------------------
   0 C :   -0.406738
   1 C :   -0.185505
   2 O :   -0.181310
   3 C :   -0.008770
   4 O :   -0.181454
   5 C :   -0.077781
   6 C :   -0.028440
   7 C :   -0.024924
   8 O :   -0.171946
   9 O :   -0.145414
  10 C :   -0.175450
  11 C :   -0.406603
  12 C :   -0.179839
  13 C :   -0.149337
  14 C :   -0.364389
  15 C :   -0.141793
  16 C :   -0.363233
  17 C :   -0.184191
  18 C :   -0.219495
  19 C :   -0.385787
  20 C :   -0.219656
  21 C :   -0.391358
  22 H :    0.161595
  23 H :    0.178764
  24 H :    0.175367
  25 H :    0.172330
  26 H :    0.187425
  27 H :    0.185271
  28 H :    0.171386
  29 H :    0.161943
  30 H :    0.180691
  31 H :    0.171534
  32 H :    0.201455
  33 H :    0.170370
  34 H :    0.173104
  35 H :    0.165145
  36 H :    0.172527
  37 H :    0.163654
  38 H :    0.171992
  39 H :    0.210450
  40 H :    0.187109
  41 H :    0.183413
  42 H :    0.172177
  43 H :    0.162810
  44 H :    0.187788
  45 H :    0.164100
  46 H :    0.193370
  47 H :    0.167644

  Mayer bond orders larger than 0.100000
B(  0-C ,  1-C ) :   0.7548 B(  0-C ,  4-O ) :  -0.1035 B(  0-C ,  5-C ) :   0.1091
B(  0-C , 22-H ) :   0.9474 B(  0-C , 23-H ) :   0.9007 B(  0-C , 24-H ) :   0.9052
B(  1-C ,  2-O ) :   0.6870 B(  1-C ,  7-C ) :   0.2103 B(  1-C , 25-H ) :   0.9697
B(  1-C , 26-H ) :   0.9566 B(  2-O ,  3-C ) :   1.0573 B(  2-O ,  5-C ) :   0.5330
B(  2-O ,  6-C ) :  -0.8515 B(  2-O , 17-C ) :   0.1698 B(  3-C ,  4-O ) :   2.1582
B(  3-C ,  5-C ) :   0.8471 B(  3-C ,  8-O ) :  -0.1758 B(  3-C , 13-C ) :  -0.1958
B(  3-C , 15-C ) :  -0.2846 B(  3-C , 17-C ) :  -0.7016 B(  3-C , 18-C ) :  -0.2510
B(  3-C , 19-C ) :   0.2349 B(  3-C , 39-H ) :  -0.1298 B(  3-C , 41-H ) :   0.1377
B(  4-O ,  5-C ) :   0.2786 B(  4-O , 17-C ) :  -0.1542 B(  5-C ,  6-C ) :   4.4106
B(  5-C ,  8-O ) :  -0.4428 B(  5-C ,  9-O ) :  -1.0945 B(  5-C , 12-C ) :   0.5462
B(  5-C , 13-C ) :  -0.1129 B(  5-C , 15-C ) :   1.1532 B(  5-C , 16-C ) :   0.5005
B(  5-C , 17-C ) :   0.6907 B(  5-C , 19-C ) :  -0.3528 B(  5-C , 20-C ) :   0.3327
B(  5-C , 32-H ) :   0.1820 B(  5-C , 44-H ) :   0.1494 B(  5-C , 46-H ) :  -0.1507
B(  6-C ,  7-C ) :   0.9305 B(  6-C ,  9-O ) :   1.3081 B(  6-C , 10-C ) :  -0.1854
B(  6-C , 11-C ) :  -0.1116 B(  6-C , 12-C ) :   0.6731 B(  6-C , 13-C ) :   1.0029
B(  6-C , 14-C ) :   0.2427 B(  6-C , 15-C ) :  -0.4110 B(  6-C , 16-C ) :  -0.3020
B(  6-C , 17-C ) :   0.5059 B(  6-C , 18-C ) :   0.2291 B(  6-C , 19-C ) :   0.1199
B(  6-C , 20-C ) :   0.3294 B(  6-C , 21-C ) :  -0.1999 B(  6-C , 39-H ) :   0.1968
B(  6-C , 44-H ) :  -0.1234 B(  6-C , 46-H ) :   0.1742 B(  6-C , 47-H ) :  -0.1038
B(  7-C ,  8-O ) :   2.9610 B(  7-C ,  9-O ) :   1.0591 B(  7-C , 10-C ) :   0.2762
B(  7-C , 11-C ) :   0.1605 B(  7-C , 12-C ) :  -0.5144 B(  7-C , 13-C ) :  -0.8486
B(  7-C , 14-C ) :  -0.1485 B(  7-C , 15-C ) :   0.4201 B(  7-C , 20-C ) :  -0.3123
B(  7-C , 32-H ) :  -0.1660 B(  8-O ,  9-O ) :  -0.1145 B(  8-O , 12-C ) :   0.1221
B(  9-O , 10-C ) :   0.5750 B(  9-O , 11-C ) :  -0.1496 B(  9-O , 12-C ) :   0.2005
B(  9-O , 13-C ) :  -0.2771 B(  9-O , 17-C ) :  -0.1319 B( 10-C , 11-C ) :   0.8695
B( 10-C , 27-H ) :   0.9419 B( 10-C , 28-H ) :   0.9745 B( 11-C , 29-H ) :   0.9132
B( 11-C , 30-H ) :   0.8749 B( 11-C , 31-H ) :   0.9395 B( 12-C , 13-C ) :   1.2354
B( 12-C , 15-C ) :   0.6713 B( 12-C , 16-C ) :   0.2054 B( 12-C , 20-C ) :   0.8594
B( 12-C , 21-C ) :  -0.3768 B( 12-C , 32-H ) :   0.7980 B( 12-C , 33-H ) :   0.1324
B( 12-C , 46-H ) :  -0.3434 B( 12-C , 47-H ) :   0.1317 B( 13-C , 14-C ) :  -0.8814
B( 13-C , 15-C ) :   3.2184 B( 13-C , 16-C ) :   0.3580 B( 13-C , 17-C ) :   0.6673
B( 13-C , 18-C ) :  -0.3592 B( 13-C , 19-C ) :  -0.1099 B( 13-C , 20-C ) :   0.6527
B( 13-C , 21-C ) :   0.3299 B( 13-C , 32-H ) :   0.1346 B( 13-C , 33-H ) :  -0.1315
B( 13-C , 35-H ) :  -0.4467 B( 13-C , 37-H ) :   0.3800 B( 13-C , 38-H ) :  -0.1364
B( 13-C , 40-H ) :  -0.1093 B( 13-C , 44-H ) :   0.2641 B( 13-C , 46-H ) :   0.1254
B( 14-C , 15-C ) :   0.4671 B( 14-C , 16-C ) :  -0.6110 B( 14-C , 17-C ) :   0.1719
B( 14-C , 33-H ) :   1.0217 B( 14-C , 34-H ) :   0.8867 B( 14-C , 35-H ) :   1.0791
B( 14-C , 37-H ) :  -0.1111 B( 15-C , 16-C ) :  -0.6512 B( 15-C , 17-C ) :   0.1942
B( 15-C , 18-C ) :   0.7404 B( 15-C , 19-C ) :   0.1811 B( 15-C , 20-C ) :  -0.4997
B( 15-C , 21-C ) :  -0.1548 B( 15-C , 33-H ) :  -0.1221 B( 15-C , 35-H ) :   0.3347
B( 15-C , 37-H ) :  -0.4896 B( 15-C , 38-H ) :  -0.1749 B( 15-C , 39-H ) :   0.1048
B( 15-C , 40-H ) :   0.1540 B( 15-C , 44-H ) :  -0.2162 B( 16-C , 17-C ) :  -0.7076
B( 16-C , 18-C ) :   0.1154 B( 16-C , 35-H ) :  -0.1001 B( 16-C , 36-H ) :   0.9107
B( 16-C , 37-H ) :   1.0800 B( 16-C , 38-H ) :   1.0691 B( 17-C , 18-C ) :   0.8711
B( 17-C , 19-C ) :  -0.2192 B( 17-C , 20-C ) :   0.1040 B( 17-C , 21-C ) :   0.1137
B( 17-C , 36-H ) :  -0.1754 B( 17-C , 38-H ) :   0.1604 B( 17-C , 39-H ) :   0.8158
B( 17-C , 41-H ) :  -0.2090 B( 17-C , 46-H ) :   0.1360 B( 18-C , 19-C ) :   0.8384
B( 18-C , 20-C ) :   1.0134 B( 18-C , 21-C ) :  -0.1009 B( 18-C , 40-H ) :   0.9068
B( 18-C , 41-H ) :   0.2123 B( 18-C , 42-H ) :  -0.1142 B( 18-C , 46-H ) :  -0.1621
B( 19-C , 41-H ) :   0.8046 B( 19-C , 42-H ) :   0.9668 B( 19-C , 43-H ) :   0.9427
B( 20-C , 21-C ) :   0.9032 B( 20-C , 41-H ) :  -0.1060 B( 20-C , 44-H ) :   0.9752
B( 20-C , 46-H ) :   0.3004 B( 20-C , 47-H ) :  -0.1244 B( 21-C , 45-H ) :   0.9613
B( 21-C , 46-H ) :   0.7518 B( 21-C , 47-H ) :   0.9732

-----------------------------------------------------------------------------
         ABSORPTION SPECTRUM VIA TRANSITION ELECTRIC DIPOLE MOMENTS
-----------------------------------------------------------------------------
State   Energy    Wavelength  fosc         T2        TX        TY        TZ
        (cm-1)      (nm)                 (au**2)    (au)      (au)      (au)
-----------------------------------------------------------------------------
   1   39362.7    254.0   0.008598588   0.07191  -0.20725  -0.07558  -0.15248
   2   41946.7    238.4   0.001121490   0.00880  -0.05861  -0.07224  -0.01213
   3   46021.6    217.3   0.004522393   0.03235  -0.09376  -0.12898  -0.08321
   4   47309.3    211.4   0.001086765   0.00756   0.05870  -0.01949  -0.06113
   5   48249.0    207.3   0.118628039   0.80942  -0.27400  -0.81543  -0.26347
   6   50860.4    196.6   0.013537713   0.08763   0.21448   0.19947  -0.04289
   7   52119.5    191.9   0.005949502   0.03758  -0.04329  -0.18896   0.00103
   8   52169.6    191.7   0.004434509   0.02798   0.03673   0.16099   0.02676
   9   54140.2    184.7   0.012592506   0.07657   0.06376   0.24112   0.11986
  10   54969.1    181.9   0.029316349   0.17558   0.08880   0.39884  -0.09282

FINAL SINGLE POINT ENERGY     -1002.127370328888

DIPOLE MOMENT
-------------
                                X             Y             Z
Electronic contribution:      3.74240       1.39009      -3.46995
Nuclear contribution   :     -3.58100      -1.98548       2.85570
                        -----------------------------------------
Total Dipole Moment    :      0.16140      -0.59538      -0.61425
                        -----------------------------------------
Magnitude (a.u.)       :      0.87054
Magnitude (Debye)      :      2.21274

Rotational constants in cm-1:     0.012791     0.008138     0.006895
Rotational constants in MHz :   383.463987   243.983468   206.710473

                             ****ORCA TERMINATED NORMALLY****
TOTAL RUN TIME: 0 days 0 hours 17 minutes 23 seconds 952 msec
