                         Program Version 5.0.1 -  RELEASE  -
|  1> ! PAL2
|  2> ! B3LYP cc-pVDZ VeryTightSCF
|  3> % TDDFT NROOTS    10
|  4>         TRIPLETS TRUE
|  5> end
|  6> %maxcore 4000
|  7> * xyz 0 1
|  8> O  0.906440  -0.069780  0.021830
|  9> H  1.874330  -0.048440  -0.019410
| 10> H  0.627590  0.356710  -0.802370
| 11> *
| 12>
| 13>
| 14>                          ****END OF INPUT****

CARTESIAN COORDINATES (ANGSTROEM)
---------------------------------
  O      0.906440   -0.069780    0.021830
  H      1.874330   -0.048440   -0.019410
  H      0.627590    0.356710   -0.802370

 Total Charge           Charge          ....    0
 Multiplicity           Mult            ....    1
 Number of Electrons    NEL             ....   10
 Basis Dimension        Dim             ....   24

ORBITAL ENERGIES
----------------

  NO   OCC          E(Eh)            E(eV)
   0   2.0000     -19.120450      -520.2939
   1   2.0000      -0.987206       -26.8632
   2   2.0000      -0.505362       -13.7516
   3   2.0000      -0.361375        -9.8335
   4   2.0000      -0.283794        -7.7224
   5   0.0000       0.052401         1.4259
   6   0.0000       0.127881         3.4798
   7   0.0000       0.556239        15.1360
   8   0.0000       0.610336        16.6081
   9   0.0000       0.905532        24.6408

MULLIKEN ATOMIC CHARGES
-----------------------
   0 O :   -0.264797
   1 H :    0.132401
   2 H :    0.132396
Sum of atomic charges:    0.0000000

LOEWDIN ATOMIC CHARGES
----------------------
   0 O :   -0.091926
   1 H :    0.045963
   2 H :    0.045963

  Mayer bond orders larger than 0.100000
B(  0-O ,  1-H ) :   1.0303 B(  0-O ,  2-H ) :   1.0303

-----------------------------------------------------------------------------
         ABSORPTION SPECTRUM VIA TRANSITION ELECTRIC DIPOLE MOMENTS
-----------------------------------------------------------------------------
State   Energy    Wavelength  fosc         T2        TX        TY        TZ
        (cm-1)      (nm)                 (au**2)    (au)      (au)      (au)
-----------------------------------------------------------------------------
   1   60695.4    164.8   0.022137793   0.12008  -0.00012  -0.30762  -0.15951
   2   75412.9    132.6   0.000000479   0.00000   0.00067   0.00001  -0.00128
   3   80125.2    124.8   0.089172547   0.36638  -0.34890  -0.22737   0.43927
   4   95769.0    104.4   0.065133306   0.22390  -0.38650   0.12553  -0.24240
   5  111853.1     89.4   0.320914299   0.94453   0.79366  -0.25783   0.49815
   6  136890.3     73.1   0.149367545   0.35922   0.34680   0.22471  -0.43412
   7  166118.2     60.2   0.000000044   0.00000  -0.00003   0.00028   0.00010
   8  180689.8     55.3   0.069924455   0.12740  -0.00021   0.31710   0.16385
   9  192760.3     51.9   0.145037747   0.24771   0.40646  -0.13196   0.25512
  10  198561.6     50.4   0.002616461   0.00434  -0.03731  -0.02490   0.04823
  11   54825.1    182.4   spin forbidden (mult=3)
  12   71555.0    139.8   spin forbidden (mult=3)
  13   71819.9    139.2   spin forbidden (mult=3)
  14   87216.2    114.7   spin forbidden (mult=3)
  15  101971.4     98.1   spin forbidden (mult=3)
  16  115511.4     86.6   spin forbidden (mult=3)
  17  163068.0     61.3   spin forbidden (mult=3)
  18  173209.2     57.7   spin forbidden (mult=3)
  19  175169.0     57.1   spin forbidden (mult=3)
  20  185252.2     54.0   spin forbidden (mult=3)

FINAL SINGLE POINT ENERGY       -76.106977806533

DIPOLE MOMENT
-------------
                                X             Y             Z
Electronic contribution:     -0.13725      -0.08923       0.17238
Nuclear contribution   :      0.57353       0.37276      -0.72036
                        -----------------------------------------
Total Dipole Moment    :      0.43628       0.28353      -0.54798
                        -----------------------------------------
Magnitude (a.u.)       :      0.75565
Magnitude (Debye)      :      1.92072

Rotational constants in cm-1:    26.442468    14.345798     9.300182
Rotational constants in MHz : 792725.236343 430076.195690 278812.442431

                             ****ORCA TERMINATED NORMALLY****
TOTAL RUN TIME: 0 days 0 hours 0 minutes 4 seconds 90 msec
